 Entering Gaussian System, Link 0=g16
 AtFile(1): /home/malgo/Basis_sets/n07d_pbe0.gbs
            -H 0
             6-31G
             S   1 1.00       0.000000000000
                  0.4000000000D+00  0.10000000D+01
             P   1 1.00       0.000000000000
                  0.7500000000D+00  0.10000000D+01
             ****
             -He 0
             6-31+G**
             ****
             -Li 0
             6-31+G**
             ****
             -Be 0
             6-31+G**
             ****
             -B 0
             6-31G
             S   1 1.00       0.000000000000
                  0.7000000000D+01  0.1000000000D+01
             P   1 1.00       0.000000000000
                  0.3500000000D-01  0.1000000000D+01
             D   1 1.00
                  0.3430000000D+00  0.1000000000D+01
             ****
             -C 0
             6-31G
             S   1 1.00       0.000000000000
                  0.8700000000D+01  0.1000000000D+01
             P   1 1.00       0.000000000000
                  0.5000000000D-01  0.1000000000D+01
             D   1 1.00
                  0.8200000000D+00  0.1000000000D+01
             ****
             -N 0
             6-31G
             S   1 1.00       0.000000000000
                  0.1370000000D+02  0.1000000000D+01
             P   1 1.00       0.000000000000
                  0.5300000000D-01  0.1000000000D+01
             D   1 1.00       0.000000000000
                  0.1015000000D+01  0.1000000000D+01
             ****
             -O 0
             6-31G
             S   1 1.00
                  0.1600000000D+02  0.1000000000D+01
             P   1 1.00       0.000000000000
                  0.6500000000D-01  0.1000000000D+01
             D   1 1.00        0.000000000000
                  0.1190000000D+01  0.1000000000D+01
             D   1 1.00        0.000000000000
                  0.1800000000D+00  0.1000000000D+01
             ****
             -F 0
             6-31G
             S   1 1.00
                  0.1770000000D+02  0.1000000000D+01
             P   1 1.00       0.000000000000
                  0.8300000000D-01  0.1000000000D+01
             D   1 1.00       0.000000000000
                  1.3700000000D+00  0.1000000000D+01
             D   1 1.00       0.000000000000
                  0.2300000000D+00  0.1000000000D+01
             ****
             -Ne 0
             6-31+G**
             ****
             -Na 0
             6-31+G**
             ****
             -Mg 0
             6-31+G**
             ****
             -Al 0
             6-31G
             S   1 1.00      0.000000000000
                  0.3100000000D+01  0.1000000000D+01
             P   1 1.00      0.000000000000
                  0.1500000000D-01  0.1000000000D+01
             D   1 1.00      0.000000000000
                  0.1890000000D+00  0.1000000000D+01
             ****
             -Si 0
             6-31G
             S   1 1.00      0.000000000000
                  0.5000000000D+01  0.1000000000D+01
             P   1 1.00       0.000000000000
                  0.3300000000D-01  0.1000000000D+01
             D   1 1.0        0.000000000000
                  0.2750000000D+00  0.1000000000D+01
             ****
             -P  0
             6-31G
             S   1 1.00       0.000000000000
                  0.6300000000D+01  0.1000000000D+01
             P   1 1.00       0.000000000000
                  0.3500000000D-01  0.1000000000D+01
             D   1 1.00       0.000000000000
                  0.3730000000D+00  0.1000000000D+01
             ****
             -S  0
             6-31G
             S   1  1.00      0.000000000000
                  0.7500000000D+01  0.1000000000D+01
             P   1 1.00       0.000000000000
                  0.4100000000D-01  0.1000000000D+01
             D   1 1.00       0.000000000000
                  0.4790000000D+00  0.1000000000D+01
             ****
            -Cl 0
             6-31G
             S   1 1.00       0.000000000000
                  0.8500000000D+01  0.1000000000D+01
             P   1 1.00       0.000000000000
                  0.4800000000D-01  0.1000000000D+01
             D   1 1.00       0.000000000000
                  0.6000000000D+00  0.1000000000D+01
             D   1 1.00       0.000000000000
                  0.1960000000D+00  0.1000000000D+01
             ****
            -Br 0
             S   3 1.00       0.000000000000
                  0.4721881000D+01  0.1749732514D+00
                  0.2257555000D+01 -0.7074172290D+00
                  0.3896080000D+00  0.1258999543D+01
             S   1 1.00       0.000000000000
                  0.1471340000D+00  0.1000000000D+01
             P   3 1.00       0.000000000000
                  0.1896942000D+01 -0.2464576731D+00
                  0.9108990000D+00  0.3623179892D+00
                  0.3168550000D+00  0.8338469725D+00
             P   1 1.00       0.000000000000
                  0.1095030000D+00  0.1000000000D+01
             P   1 1.00       0.000000000000
                  0.3609700000D-01  0.1000000000D+01
             D   1 1.00
                  0.4750000000D+00  0.1000000000D+01
             D   1 1.00
                  0.1280000000D+00  0.1000000000D+01
             ****
            -I   0
             S   3 1.00       0.000000000000
                  0.2122765000D+01  0.2063429899D+01
                  0.1770481000D+01 -0.2869526473D+01
                  0.3130840000D+00  0.1404747074D+01
             S   1 1.00       0.000000000000
                  0.1320000000D+00  0.1000000000D+01
             P   3 1.00       0.000000000000
                  0.2432887000D+01  0.7732753148D+00
                  0.2137249000D+01 -0.1020833156D+01
                  0.3145460000D+00  0.1095666871D+01
             P   1 1.00       0.000000000000
                  0.1049450000D+00  0.1000000000D+01
             P   1 1.00       0.000000000000
                  0.3264100000D-01  0.1000000000D+01
             D   1 1.00
                  0.300000000          1.00000000
             D   1 1.00
                  0.090000000          1.00000000
             ****
             -Zn 0
             SP   6 1.00       0.000000000000
                  0.6936492000D+02 -0.4440098182D-02 -0.7689261805D-02
                  0.2362082000D+02  0.7505253308D-01 -0.2997981924D-01
                  0.1018471000D+02  0.2533111104D+00  0.7082410821D-01
                  0.4334082000D+01 -0.2881897118D+00  0.4046140897D+00
                  0.1810918000D+01 -0.7267052298D+00  0.4882324876D+00
                  0.7148410000D+00 -0.2133439088D+00  0.1751969956D+00
             SP   3 1.00       0.000000000000
                  0.2823842000D+01  0.4898545031D-01 -0.1586762981D+00
                  0.1039543000D+01  0.2592794075D+00  0.8379326898D-01
                  0.1432640000D+00 -0.1115711463D+01  0.9840546881D+00
             SP   1 1.00       0.000000000000
                  0.4929600000D-01  0.1000000000D+01  0.1000000000D+01
             S    1 1.00       0.000000000000
                  0.1620000000D+00  0.1000000000D+01
             D    3 1.00       0.000000000000
                  0.3370764000D+02  0.9262647815D-01
                  0.9061106000D+01  0.4002979920D+00
                  0.2738383000D+01  0.6896607863D+00
             D    1 1.00
                  0.2440000000D+01  0.1000000000D+01
             D    1 1.00       0.000000000000
                  0.7302940000D+00  0.1000000000D+01
             D    1 1.00       0.000000000000
                  0.1620000000D+00  0.1000000000D+01
            ****
 Initial command:
 /data2/g16/g16/l1.exe "/tmp/Gau-28940.inp" -scrdir="/tmp/"
 Entering Link 1 = /data2/g16/g16/l1.exe PID=     28941.
  
 Copyright (c) 1988-2017, Gaussian, Inc.  All Rights Reserved.
  
 This is part of the Gaussian(R) 16 program.  It is based on
 the Gaussian(R) 09 system (copyright 2009, Gaussian, Inc.),
 the Gaussian(R) 03 system (copyright 2003, Gaussian, Inc.),
 the Gaussian(R) 98 system (copyright 1998, Gaussian, Inc.),
 the Gaussian(R) 94 system (copyright 1995, Gaussian, Inc.),
 the Gaussian 92(TM) system (copyright 1992, Gaussian, Inc.),
 the Gaussian 90(TM) system (copyright 1990, Gaussian, Inc.),
 the Gaussian 88(TM) system (copyright 1988, Gaussian, Inc.),
 the Gaussian 86(TM) system (copyright 1986, Carnegie Mellon
 University), and the Gaussian 82(TM) system (copyright 1983,
 Carnegie Mellon University). Gaussian is a federally registered
 trademark of Gaussian, Inc.
  
 This software contains proprietary and confidential information,
 including trade secrets, belonging to Gaussian, Inc.
  
 This software is provided under written license and may be
 used, copied, transmitted, or stored only in accord with that
 written license.
  
 The following legend is applicable only to US Government
 contracts under FAR:
  
                    RESTRICTED RIGHTS LEGEND
  
 Use, reproduction and disclosure by the US Government is
 subject to restrictions as set forth in subparagraphs (a)
 and (c) of the Commercial Computer Software - Restricted
 Rights clause in FAR 52.227-19.
  
 Gaussian, Inc.
 340 Quinnipiac St., Bldg. 40, Wallingford CT 06492
  
  
 ---------------------------------------------------------------
 Warning -- This program may not be used in any manner that
 competes with the business of Gaussian, Inc. or will provide
 assistance to any competitor of Gaussian, Inc.  The licensee
 of this program is prohibited from giving any competitor of
 Gaussian, Inc. access to this program.  By using this program,
 the user acknowledges that Gaussian, Inc. is engaged in the
 business of creating and licensing software in the field of
 computational chemistry and represents and warrants to the
 licensee that it is not a competitor of Gaussian, Inc. and that
 it will not use this program in any manner prohibited above.
 ---------------------------------------------------------------
  

 Cite this work as:
 Gaussian 16, Revision B.01,
 M. J. Frisch, G. W. Trucks, H. B. Schlegel, G. E. Scuseria, 
 M. A. Robb, J. R. Cheeseman, G. Scalmani, V. Barone, 
 G. A. Petersson, H. Nakatsuji, X. Li, M. Caricato, A. V. Marenich, 
 J. Bloino, B. G. Janesko, R. Gomperts, B. Mennucci, H. P. Hratchian, 
 J. V. Ortiz, A. F. Izmaylov, J. L. Sonnenberg, D. Williams-Young, 
 F. Ding, F. Lipparini, F. Egidi, J. Goings, B. Peng, A. Petrone, 
 T. Henderson, D. Ranasinghe, V. G. Zakrzewski, J. Gao, N. Rega, 
 G. Zheng, W. Liang, M. Hada, M. Ehara, K. Toyota, R. Fukuda, 
 J. Hasegawa, M. Ishida, T. Nakajima, Y. Honda, O. Kitao, H. Nakai, 
 T. Vreven, K. Throssell, J. A. Montgomery, Jr., J. E. Peralta, 
 F. Ogliaro, M. J. Bearpark, J. J. Heyd, E. N. Brothers, K. N. Kudin, 
 V. N. Staroverov, T. A. Keith, R. Kobayashi, J. Normand, 
 K. Raghavachari, A. P. Rendell, J. C. Burant, S. S. Iyengar, 
 J. Tomasi, M. Cossi, J. M. Millam, M. Klene, C. Adamo, R. Cammi, 
 J. W. Ochterski, R. L. Martin, K. Morokuma, O. Farkas, 
 J. B. Foresman, and D. J. Fox, Gaussian, Inc., Wallingford CT, 2016.
 
 ******************************************
 Gaussian 16:  AM64L-G16RevB.01 20-Dec-2017
                23-Jun-2019 
 ******************************************
 %chk=5G27_MTN_ready_set.chk
 %mem=60GB
 %nprocshared=12
 Will use up to   12 processors via shared memory.
 -----------------
 #p gen 6d pbe1pbe
 -----------------
 1/38=1,172=1/1;
 2/12=2,17=6,18=5,40=1/2;
 3/5=7,8=2,11=2,25=1,30=1,74=-13/1,2,3;
 4//1;
 5/5=2,38=5/2;
 6/7=2,8=2,9=2,10=2,28=1/1;
 99/5=1,9=1/99;
 Leave Link    1 at Sun Jun 23 21:40:59 2019, MaxMem=  8053063680 cpu:               0.0 elap:               0.1
 (Enter /data2/g16/g16/l101.exe)
 ------------------
 start preoptimized
 ------------------
 Symbolic Z-matrix:
 Charge =  0 Multiplicity = 2
 C                    -11.73     58.611    0.665 
 C                    -10.7      59.448    1.374 
 C                    -10.946    60.75     1.327 
 C                    -10.094    61.789    1.991 
 C                    -12.175    61.089    0.515 
 C                    -11.843    61.67    -0.856 
 C                    -13.171    61.971    1.264 
 C                    -12.316    57.519    1.554 
 C                    -11.215    58.024   -0.647 
 N                    -12.768    59.664    0.406 
 O                    -13.585    59.485   -0.776 
 H                    -9.825     59.142    1.45 
 H                    -9.757     61.437    2.794 
 H                    -10.623    62.539    2.187 
 H                    -11.37     62.474   -0.748 
 H                    -12.638    61.835   -1.327 
 H                    -11.316    61.059   -1.336 
 H                    -12.761    62.784    1.494 
 H                    -13.453    61.531    2.044 
 H                    -13.914    62.14     0.715 
 H                    -12.534    57.881    2.392 
 H                    -13.09     57.17     1.153 
 H                    -11.685    56.833    1.664 
 H                    -10.829    58.706   -1.165 
 H                    -10.57     57.367   -0.464 
 H                    -11.929    57.638   -1.119 
 H                    -9.2728    62.09577   1.37746 
 
 ITRead=  0  0  0  0  0  0  0  0  0  0  0  0  0  0  0  0  0  0  0  0
 ITRead=  0  0  0  0  0  0  0
 MicOpt= -1 -1 -1 -1 -1 -1 -1 -1 -1 -1 -1 -1 -1 -1 -1 -1 -1 -1 -1 -1
 MicOpt= -1 -1 -1 -1 -1 -1 -1
 NAtoms=     27 NQM=       27 NQMF=       0 NMMI=      0 NMMIF=      0
                NMic=       0 NMicF=      0.
                    Isotopes and Nuclear Properties:
 (Nuclear quadrupole moments (NQMom) in fm**2, nuclear magnetic moments (NMagM)
  in nuclear magnetons)

  Atom         1           2           3           4           5           6           7           8           9          10
 IAtWgt=          12          12          12          12          12          12          12          12          12          14
 AtmWgt=  12.0000000  12.0000000  12.0000000  12.0000000  12.0000000  12.0000000  12.0000000  12.0000000  12.0000000  14.0030740
 NucSpn=           0           0           0           0           0           0           0           0           0           2
 AtZEff=   0.0000000   0.0000000   0.0000000   0.0000000   0.0000000   0.0000000   0.0000000   0.0000000   0.0000000   0.0000000
 NQMom=    0.0000000   0.0000000   0.0000000   0.0000000   0.0000000   0.0000000   0.0000000   0.0000000   0.0000000   2.0440000
 NMagM=    0.0000000   0.0000000   0.0000000   0.0000000   0.0000000   0.0000000   0.0000000   0.0000000   0.0000000   0.4037610
 AtZNuc=   6.0000000   6.0000000   6.0000000   6.0000000   6.0000000   6.0000000   6.0000000   6.0000000   6.0000000   7.0000000

  Atom        11          12          13          14          15          16          17          18          19          20
 IAtWgt=          16           1           1           1           1           1           1           1           1           1
 AtmWgt=  15.9949146   1.0078250   1.0078250   1.0078250   1.0078250   1.0078250   1.0078250   1.0078250   1.0078250   1.0078250
 NucSpn=           0           1           1           1           1           1           1           1           1           1
 AtZEff=   0.0000000   0.0000000   0.0000000   0.0000000   0.0000000   0.0000000   0.0000000   0.0000000   0.0000000   0.0000000
 NQMom=    0.0000000   0.0000000   0.0000000   0.0000000   0.0000000   0.0000000   0.0000000   0.0000000   0.0000000   0.0000000
 NMagM=    0.0000000   2.7928460   2.7928460   2.7928460   2.7928460   2.7928460   2.7928460   2.7928460   2.7928460   2.7928460
 AtZNuc=   8.0000000   1.0000000   1.0000000   1.0000000   1.0000000   1.0000000   1.0000000   1.0000000   1.0000000   1.0000000

  Atom        21          22          23          24          25          26          27
 IAtWgt=           1           1           1           1           1           1           1
 AtmWgt=   1.0078250   1.0078250   1.0078250   1.0078250   1.0078250   1.0078250   1.0078250
 NucSpn=           1           1           1           1           1           1           1
 AtZEff=   0.0000000   0.0000000   0.0000000   0.0000000   0.0000000   0.0000000   0.0000000
 NQMom=    0.0000000   0.0000000   0.0000000   0.0000000   0.0000000   0.0000000   0.0000000
 NMagM=    2.7928460   2.7928460   2.7928460   2.7928460   2.7928460   2.7928460   2.7928460
 AtZNuc=   1.0000000   1.0000000   1.0000000   1.0000000   1.0000000   1.0000000   1.0000000
 Leave Link  101 at Sun Jun 23 21:40:59 2019, MaxMem=  8053063680 cpu:               0.0 elap:               0.1
 (Enter /data2/g16/g16/l202.exe)
                          Input orientation:                          
 ---------------------------------------------------------------------
 Center     Atomic      Atomic             Coordinates (Angstroms)
 Number     Number       Type             X           Y           Z
 ---------------------------------------------------------------------
      1          6           0      -11.730000   58.611000    0.665000
      2          6           0      -10.700000   59.448000    1.374000
      3          6           0      -10.946000   60.750000    1.327000
      4          6           0      -10.094000   61.789000    1.991000
      5          6           0      -12.175000   61.089000    0.515000
      6          6           0      -11.843000   61.670000   -0.856000
      7          6           0      -13.171000   61.971000    1.264000
      8          6           0      -12.316000   57.519000    1.554000
      9          6           0      -11.215000   58.024000   -0.647000
     10          7           0      -12.768000   59.664000    0.406000
     11          8           0      -13.585000   59.485000   -0.776000
     12          1           0       -9.825000   59.142000    1.450000
     13          1           0       -9.757000   61.437000    2.794000
     14          1           0      -10.623000   62.539000    2.187000
     15          1           0      -11.370000   62.474000   -0.748000
     16          1           0      -12.638000   61.835000   -1.327000
     17          1           0      -11.316000   61.059000   -1.336000
     18          1           0      -12.761000   62.784000    1.494000
     19          1           0      -13.453000   61.531000    2.044000
     20          1           0      -13.914000   62.140000    0.715000
     21          1           0      -12.534000   57.881000    2.392000
     22          1           0      -13.090000   57.170000    1.153000
     23          1           0      -11.685000   56.833000    1.664000
     24          1           0      -10.829000   58.706000   -1.165000
     25          1           0      -10.570000   57.367000   -0.464000
     26          1           0      -11.929000   57.638000   -1.119000
     27          1           0       -9.272803   62.095769    1.377462
 ---------------------------------------------------------------------
                    Distance matrix (angstroms):
                    1          2          3          4          5
     1  C    0.000000
     2  C    1.504709   0.000000
     3  C    2.372387   1.325869   0.000000
     4  C    3.812408   2.495637   1.498773   0.000000
     5  C    2.522104   2.367781   1.511524   2.645588   0.000000
     6  C    3.418141   3.349124   2.533081   3.343437   1.525590
     7  C    3.704711   3.533195   2.538786   3.166952   1.526742
     8  C    1.525182   2.522875   3.516787   4.833338   3.720793
     9  C    1.526806   2.525360   3.376405   4.731903   3.415563
    10  N    1.501111   2.293535   2.312428   3.765385   1.547306
    11  O    2.506269   3.598207   3.603770   5.015156   2.495515
    12  H    2.127724   0.930074   1.964035   2.715078   3.191792
    13  H    4.051129   2.619498   2.009423   0.939299   3.340908
    14  H    4.355585   3.197058   2.011082   0.938487   2.703107
    15  H    4.129036   3.756123   2.730856   3.098310   2.039956
    16  H    3.897012   4.092556   3.329235   4.181289   2.040551
    17  H    3.188746   3.212301   2.706280   3.618717   2.040829
    18  H    4.377686   3.923139   2.731166   2.889623   2.043248
    19  H    3.660160   3.516646   2.721966   3.369311   2.041198
    20  H    4.150445   4.243930   3.334017   4.042744   2.041745
    21  H    2.040060   2.618276   3.447772   4.624593   3.734069
    22  H    2.040643   3.309112   4.176531   5.568969   4.074657
    23  H    2.039929   2.809368   4.000322   5.215376   4.435520
    24  H    2.041991   2.648344   3.225165   4.472745   3.211356
    25  H    2.041513   2.779515   3.846264   5.080126   4.169862
    26  H    2.041809   3.316864   4.078449   5.501829   3.826209
    27  H    4.323081   3.007920   2.147843   1.070000   3.190638
                    6          7          8          9         10
     6  C    0.000000
     7  C    2.519640   0.000000
     8  C    4.823135   4.542624   0.000000
     9  C    3.705588   4.801736   2.512295   0.000000
    10  N    2.544073   2.494158   2.474517   2.492031   0.000000
    11  O    2.795566   3.242405   3.302184   2.787124   1.447983
    12  H    3.972498   4.385607   2.974899   2.753077   3.166018
    13  H    4.210485   3.779081   4.841157   5.061108   4.232280
    14  H    3.391668   2.768909   5.335479   5.363511   4.004823
    15  H    0.939047   2.746772   5.544921   4.453844   3.343983
    16  H    0.938664   2.648748   5.199202   4.124445   2.780905
    17  H    0.938856   3.321561   4.678002   3.113864   2.662498
    18  H    2.757938   0.939132   5.284113   5.443491   3.304269
    19  H    3.319853   0.938895   4.198692   4.954712   2.576423
    20  H    2.641587   0.939154   4.960964   5.106966   2.745792
    21  H    5.038205   4.290251   0.938516   3.315981   2.679187
    22  H    5.083413   4.802966   0.938977   2.735862   2.623305
    23  H    5.456366   5.363510   0.938540   2.641988   3.281770
    24  H    3.147852   4.695235   3.318599   0.939385   2.673112
    25  H    4.504442   5.563093   2.672816   0.938703   3.296106
    26  H    4.041484   5.098641   2.703490   0.938923   2.670996
    27  H    3.431551   3.901843   5.499002   4.944682   4.367338
                   11         12         13         14         15
    11  O    0.000000
    12  H    4.382958   0.000000
    13  H    5.586483   2.660448   0.000000
    14  H    5.184566   3.566452   1.527354   0.000000
    15  H    3.720367   4.280240   4.027766   3.029267   0.000000
    16  H    2.592857   4.782985   5.043928   4.111452   1.533423
    17  H    2.817701   3.695912   4.430605   3.883578   1.533260
    18  H    4.088432   4.678268   3.539552   2.260822   2.656604
    19  H    3.486537   4.384352   3.772499   3.007559   3.608795
    20  H    3.062735   5.123295   4.700755   3.627212   2.953618
    21  H    3.703193   3.133076   4.529732   5.038939   5.684201
    22  H    3.053734   3.825862   5.657655   5.998450   5.891062
    23  H    4.073905   2.972689   5.117705   5.827505   6.143114
    24  H    2.890276   2.834843   4.927598   5.096099   3.829412
    25  H    3.697769   2.714599   5.276403   5.812073   5.177075
    26  H    2.504275   3.645352   5.870396   6.054343   4.882317
    27  H    5.481656   3.005817   1.635543   1.635493   3.009798
                   16         17         18         19         20
    16  H    0.000000
    17  H    1.532952   0.000000
    18  H    2.978888   3.615598   0.000000
    19  H    3.481420   4.026655   1.533419   0.000000
    20  H    2.427131   3.482063   1.533293   1.532855   0.000000
    21  H    5.429171   5.047890   4.989724   3.779969   4.780775
    22  H    5.302540   4.946364   5.633961   4.465867   5.056849
    23  H    5.905446   5.195694   6.049882   5.034027   5.833806
    24  H    3.617923   2.408946   5.237651   5.016341   4.984374
    25  H    4.998441   3.866234   6.162640   5.651606   5.945915
    26  H    4.261544   3.482255   5.831064   5.242384   5.250884
    27  H    4.325120   3.551397   3.557353   4.270513   4.688445
                   21         22         23         24         25
    21  H    0.000000
    22  H    1.532899   0.000000
    23  H    1.532674   1.532552   0.000000
    24  H    4.029876   3.583928   3.499158   0.000000
    25  H    3.504030   3.000650   2.461050   1.533429   0.000000
    26  H    3.571022   2.594018   2.907344   1.533864   1.532758
    27  H    5.424847   6.235750   5.796338   4.514022   5.237839
                   26         27
    26  H    0.000000
    27  H    5.758421   0.000000
 Stoichiometry    C9H16NO(2)
 Framework group  C1[X(C9H16NO)]
 Deg. of freedom    75
 Full point group                 C1      NOp   1
 Largest Abelian subgroup         C1      NOp   1
 Largest concise Abelian subgroup C1      NOp   1
                         Standard orientation:                         
 ---------------------------------------------------------------------
 Center     Atomic      Atomic             Coordinates (Angstroms)
 Number     Number       Type             X           Y           Z
 ---------------------------------------------------------------------
      1          6           0       -1.341973    0.442734   -0.037289
      2          6           0       -0.267640    1.483393    0.126990
      3          6           0        0.963040    0.992901    0.074307
      4          6           0        2.203666    1.828440    0.169409
      5          6           0        0.992604   -0.510804   -0.076367
      6          6           0        1.360745   -1.233039    1.216024
      7          6           0        1.857139   -0.985455   -1.241796
      8          6           0       -2.326426    0.782333   -1.151607
      9          6           0       -2.079734    0.142482    1.265284
     10          7           0       -0.493587   -0.724859   -0.449963
     11          8           0       -0.981711   -2.037126   -0.080716
     12          1           0       -0.440254    2.256307    0.614683
     13          1           0        2.045022    2.655432   -0.246761
     14          1           0        2.902043    1.391628   -0.280282
     15          1           0        2.225279   -0.978858    1.480186
     16          1           0        1.336449   -2.160607    1.074185
     17          1           0        0.747715   -1.003250    1.888960
     18          1           0        2.743846   -0.705125   -1.110896
     19          1           0        1.528894   -0.621742   -2.042727
     20          1           0        1.829696   -1.922950   -1.290385
     21          1           0       -1.853541    1.060658   -1.913005
     22          1           0       -2.837297    0.022797   -1.360876
     23          1           0       -2.895296    1.472402   -0.866916
     24          1           0       -1.455767   -0.031410    1.945629
     25          1           0       -2.605638    0.882256    1.504706
     26          1           0       -2.631502   -0.607921    1.146866
     27          1           0        2.500623    2.003485    1.182363
 ---------------------------------------------------------------------
 Rotational constants (GHZ):           1.5152840           1.0447928           0.8315332
 Leave Link  202 at Sun Jun 23 21:40:59 2019, MaxMem=  8053063680 cpu:               0.0 elap:               0.1
 (Enter /data2/g16/g16/l301.exe)
 General basis read from cards:  (6D, 7F)
 Centers:      12     13     14     15     16     17     18     19     20     21
 Centers:      22     23     24     25     26     27
 6-31G
 S 1 1.00 0.000000000000
     Exponent=  4.0000000000D-01 Coefficients=  1.0000000000D+00
 P 1 1.00 0.000000000000
     Exponent=  7.5000000000D-01 Coefficients=  1.0000000000D+00
 ****
 Centers:       1      2      3      4      5      6      7      8      9
 6-31G
 S 1 1.00 0.000000000000
     Exponent=  8.7000000000D+00 Coefficients=  1.0000000000D+00
 P 1 1.00 0.000000000000
     Exponent=  5.0000000000D-02 Coefficients=  1.0000000000D+00
 D 1 1.00
     Exponent=  8.2000000000D-01 Coefficients=  1.0000000000D+00
 ****
 Centers:      10
 6-31G
 S 1 1.00 0.000000000000
     Exponent=  1.3700000000D+01 Coefficients=  1.0000000000D+00
 P 1 1.00 0.000000000000
     Exponent=  5.3000000000D-02 Coefficients=  1.0000000000D+00
 D 1 1.00 0.000000000000
     Exponent=  1.0150000000D+00 Coefficients=  1.0000000000D+00
 ****
 Centers:      11
 6-31G
 S 1 1.00
     Exponent=  1.6000000000D+01 Coefficients=  1.0000000000D+00
 P 1 1.00 0.000000000000
     Exponent=  6.5000000000D-02 Coefficients=  1.0000000000D+00
 D 1 1.00 0.000000000000
     Exponent=  1.1900000000D+00 Coefficients=  1.0000000000D+00
 D 1 1.00 0.000000000000
     Exponent=  1.8000000000D-01 Coefficients=  1.0000000000D+00
 ****
 Ernie: Thresh=  0.10000D-02 Tol=  0.10000D-05 Strict=F.
 There are   311 symmetry adapted cartesian basis functions of A   symmetry.
 There are   311 symmetry adapted basis functions of A   symmetry.
   311 basis functions,   486 primitive gaussians,   311 cartesian basis functions
    43 alpha electrons       42 beta electrons
       nuclear repulsion energy       688.0983409938 Hartrees.
 IExCor= 1009 DFT=T Ex+Corr=PBE1PBE ExCW=0 ScaHFX=  0.250000
 ScaDFX=  0.750000  0.750000  1.000000  1.000000 ScalE2=  1.000000  1.000000
 IRadAn=      5 IRanWt=     -1 IRanGd=            0 ICorTp=0 IEmpDi=  4
 NAtoms=   27 NActive=   27 NUniq=   27 SFac= 1.00D+00 NAtFMM=   60 NAOKFM=F Big=F
 Integral buffers will be    131072 words long.
 Raffenetti 2 integral format.
 Two-electron integral symmetry is turned on.
 Leave Link  301 at Sun Jun 23 21:41:00 2019, MaxMem=  8053063680 cpu:               0.0 elap:               0.1
 (Enter /data2/g16/g16/l302.exe)
 NPDir=0 NMtPBC=     1 NCelOv=     1 NCel=       1 NClECP=     1 NCelD=      1
         NCelK=      1 NCelE2=     1 NClLst=     1 CellRange=     0.0.
 One-electron integrals computed using PRISM.
 One-electron integral symmetry used in STVInt
 NBasis=   311 RedAO= T EigKep=  1.30D-04  NBF=   311
 NBsUse=   311 1.00D-06 EigRej= -1.00D+00 NBFU=   311
 Precomputing XC quadrature grid using
 IXCGrd= 4 IRadAn=           5 IRanWt=          -1 IRanGd=           0 AccXCQ= 0.00D+00.
 Generated NRdTot=       0 NPtTot=           0 NUsed=           0 NTot=          32
 NSgBfM=   309   309   309   309   309 MxSgAt=    27 MxSgA2=    27.
 Leave Link  302 at Sun Jun 23 21:41:00 2019, MaxMem=  8053063680 cpu:               0.0 elap:               0.6
 (Enter /data2/g16/g16/l303.exe)
 DipDrv:  MaxL=1.
 Leave Link  303 at Sun Jun 23 21:41:00 2019, MaxMem=  8053063680 cpu:               0.0 elap:               0.1
 (Enter /data2/g16/g16/l401.exe)
 ExpMin= 5.00D-02 ExpMax= 5.48D+03 ExpMxC= 8.25D+02 IAcc=3 IRadAn=         5 AccDes= 0.00D+00
 Harris functional with IExCor= 1009 and IRadAn=       5 diagonalized for initial guess.
 HarFok:  IExCor= 1009 AccDes= 0.00D+00 IRadAn=         5 IDoV= 1 UseB2=F ITyADJ=14
 ICtDFT=  3500011 ScaDFX=  1.000000  1.000000  1.000000  1.000000
 FoFCou: FMM=F IPFlag=           0 FMFlag=      100000 FMFlg1=           0
         NFxFlg=           0 DoJE=T BraDBF=F KetDBF=T FulRan=T
         wScrn=  0.000000 ICntrl=       500 IOpCl=  0 I1Cent=   200000004 NGrid=           0
         NMat0=    1 NMatS0=      1 NMatT0=    0 NMatD0=    1 NMtDS0=    0 NMtDT0=    0
 Petite list used in FoFCou.
 Harris En= -482.054843543506    
 JPrj=0 DoOrth=F DoCkMO=F.
 Initial guess <Sx>= 0.0000 <Sy>= 0.0000 <Sz>= 0.5000 <S**2>= 0.7500 S= 0.5000
 Leave Link  401 at Sun Jun 23 21:41:01 2019, MaxMem=  8053063680 cpu:               0.0 elap:               1.0
 (Enter /data2/g16/g16/l502.exe)
 Integral symmetry usage will be decided dynamically.
 UHF open shell SCF:
 Using DIIS extrapolation, IDIIS=  1040.
 NGot=  8053063680 LenX=  8052863195 LenY=  8052766033
 Requested convergence on RMS density matrix=1.00D-08 within 128 cycles.
 Requested convergence on MAX density matrix=1.00D-06.
 Requested convergence on             energy=1.00D-06.
 No special actions if energy rises.
 Fock matrices will be formed incrementally for  20 cycles.
 Integral accuracy reduced to 1.0D-05 until final iterations.

 Cycle   1  Pass 0  IDiag  1:
 FoFJK:  IHMeth= 1 ICntrl=       0 DoSepK=F KAlg= 0 I1Cent=           0 FoldK=F
 IRaf= 940000000 NMat=       1 IRICut=       1 DoRegI=T DoRafI=F ISym2E= 0 IDoP0=0 IntGTp=1.
 FoFCou: FMM=F IPFlag=           0 FMFlag=      100000 FMFlg1=           0
         NFxFlg=           0 DoJE=F BraDBF=F KetDBF=F FulRan=T
         wScrn=  0.000000 ICntrl=         0 IOpCl=  1 I1Cent=           0 NGrid=           0
         NMat0=    1 NMatS0=      1 NMatT0=    0 NMatD0=    1 NMtDS0=    0 NMtDT0=    0
 Symmetry not used in FoFCou.
 E= -481.038703050675    
 DIIS: error= 4.02D-02 at cycle   1 NSaved=   1.
 NSaved= 1 IEnMin= 1 EnMin= -481.038703050675     IErMin= 1 ErrMin= 4.02D-02
 ErrMax= 4.02D-02  0.00D+00 EMaxC= 1.00D-01 BMatC= 2.57D+00 BMatP= 2.57D+00
 IDIUse=3 WtCom= 5.98D-01 WtEn= 4.02D-01
 Coeff-Com:  0.100D+01
 Coeff-En:   0.100D+01
 Coeff:      0.100D+01
 Gap=     0.335 Goal=   None    Shift=    0.000
 Gap=     0.081 Goal=   None    Shift=    0.000
 GapD=    0.081 DampG=0.500 DampE=0.500 DampFc=0.2500 IDamp=-1.
 Damping current iteration by 2.50D-01
 RMSDP=4.58D-03 MaxDP=1.97D-01              OVMax= 2.81D-01

 Cycle   2  Pass 0  IDiag  1:
 RMSU=  1.11D-03    CP:  9.82D-01
 E= -481.245249617853     Delta-E=       -0.206546567179 Rises=F Damp=T
 DIIS: error= 2.26D-02 at cycle   2 NSaved=   2.
 NSaved= 2 IEnMin= 2 EnMin= -481.245249617853     IErMin= 2 ErrMin= 2.26D-02
 ErrMax= 2.26D-02  0.00D+00 EMaxC= 1.00D-01 BMatC= 6.94D-01 BMatP= 2.57D+00
 IDIUse=3 WtCom= 7.74D-01 WtEn= 2.26D-01
 Coeff-Com: -0.819D+00 0.182D+01
 Coeff-En:   0.000D+00 0.100D+01
 Coeff:     -0.634D+00 0.163D+01
 Gap=     0.251 Goal=   None    Shift=    0.000
 Gap=     0.132 Goal=   None    Shift=    0.000
 RMSDP=2.04D-03 MaxDP=7.36D-02 DE=-2.07D-01 OVMax= 3.77D-01

 Cycle   3  Pass 0  IDiag  1:
 RMSU=  1.57D-03    CP:  9.39D-01  2.01D+00
 E= -481.529137042550     Delta-E=       -0.283887424696 Rises=F Damp=F
 DIIS: error= 1.17D-02 at cycle   3 NSaved=   3.
 NSaved= 3 IEnMin= 3 EnMin= -481.529137042550     IErMin= 3 ErrMin= 1.17D-02
 ErrMax= 1.17D-02  0.00D+00 EMaxC= 1.00D-01 BMatC= 4.17D-01 BMatP= 6.94D-01
 IDIUse=3 WtCom= 8.83D-01 WtEn= 1.17D-01
 Coeff-Com: -0.525D+00 0.111D+01 0.410D+00
 Coeff-En:   0.000D+00 0.000D+00 0.100D+01
 Coeff:     -0.463D+00 0.984D+00 0.480D+00
 Gap=     0.251 Goal=   None    Shift=    0.000
 Gap=     0.176 Goal=   None    Shift=    0.000
 RMSDP=1.27D-03 MaxDP=1.16D-01 DE=-2.84D-01 OVMax= 2.24D-01

 Cycle   4  Pass 0  IDiag  1:
 RMSU=  6.95D-04    CP:  9.51D-01  2.10D+00  3.41D-01
 E= -481.597367211389     Delta-E=       -0.068230168839 Rises=F Damp=F
 DIIS: error= 6.84D-03 at cycle   4 NSaved=   4.
 NSaved= 4 IEnMin= 4 EnMin= -481.597367211389     IErMin= 4 ErrMin= 6.84D-03
 ErrMax= 6.84D-03  0.00D+00 EMaxC= 1.00D-01 BMatC= 1.06D-01 BMatP= 4.17D-01
 IDIUse=3 WtCom= 9.32D-01 WtEn= 6.84D-02
 Coeff-Com: -0.154D-01 0.850D-01 0.325D+00 0.606D+00
 Coeff-En:   0.000D+00 0.000D+00 0.240D+00 0.760D+00
 Coeff:     -0.143D-01 0.791D-01 0.319D+00 0.616D+00
 Gap=     0.258 Goal=   None    Shift=    0.000
 Gap=     0.174 Goal=   None    Shift=    0.000
 RMSDP=4.93D-04 MaxDP=3.33D-02 DE=-6.82D-02 OVMax= 7.51D-02

 Cycle   5  Pass 0  IDiag  1:
 RMSU=  2.73D-04    CP:  9.48D-01  2.02D+00  5.31D-01  6.21D-01
 E= -481.617396286444     Delta-E=       -0.020029075055 Rises=F Damp=F
 DIIS: error= 1.08D-03 at cycle   5 NSaved=   5.
 NSaved= 5 IEnMin= 5 EnMin= -481.617396286444     IErMin= 5 ErrMin= 1.08D-03
 ErrMax= 1.08D-03  0.00D+00 EMaxC= 1.00D-01 BMatC= 3.53D-03 BMatP= 1.06D-01
 IDIUse=3 WtCom= 9.89D-01 WtEn= 1.08D-02
 Coeff-Com:  0.420D-01-0.609D-01 0.134D+00 0.323D+00 0.562D+00
 Coeff-En:   0.000D+00 0.000D+00 0.000D+00 0.000D+00 0.100D+01
 Coeff:      0.416D-01-0.602D-01 0.132D+00 0.320D+00 0.567D+00
 Gap=     0.242 Goal=   None    Shift=    0.000
 Gap=     0.173 Goal=   None    Shift=    0.000
 RMSDP=1.38D-04 MaxDP=8.93D-03 DE=-2.00D-02 OVMax= 1.66D-02

 Cycle   6  Pass 0  IDiag  1:
 RMSU=  8.39D-05    CP:  9.48D-01  2.01D+00  5.44D-01  6.76D-01  6.36D-01
 E= -481.618215774529     Delta-E=       -0.000819488085 Rises=F Damp=F
 DIIS: error= 4.24D-04 at cycle   6 NSaved=   6.
 NSaved= 6 IEnMin= 6 EnMin= -481.618215774529     IErMin= 6 ErrMin= 4.24D-04
 ErrMax= 4.24D-04  0.00D+00 EMaxC= 1.00D-01 BMatC= 3.68D-04 BMatP= 3.53D-03
 IDIUse=3 WtCom= 9.96D-01 WtEn= 4.24D-03
 Coeff-Com:  0.162D-01-0.273D-01 0.237D-01 0.482D-01 0.228D+00 0.711D+00
 Coeff-En:   0.000D+00 0.000D+00 0.000D+00 0.000D+00 0.000D+00 0.100D+01
 Coeff:      0.162D-01-0.272D-01 0.236D-01 0.480D-01 0.227D+00 0.713D+00
 Gap=     0.242 Goal=   None    Shift=    0.000
 Gap=     0.173 Goal=   None    Shift=    0.000
 RMSDP=4.64D-05 MaxDP=2.49D-03 DE=-8.19D-04 OVMax= 5.36D-03

 Cycle   7  Pass 0  IDiag  1:
 RMSU=  4.04D-05    CP:  9.48D-01  2.01D+00  5.49D-01  6.76D-01  7.12D-01
                    CP:  9.42D-01
 E= -481.618293033993     Delta-E=       -0.000077259464 Rises=F Damp=F
 DIIS: error= 2.03D-04 at cycle   7 NSaved=   7.
 NSaved= 7 IEnMin= 7 EnMin= -481.618293033993     IErMin= 7 ErrMin= 2.03D-04
 ErrMax= 2.03D-04  0.00D+00 EMaxC= 1.00D-01 BMatC= 1.52D-04 BMatP= 3.68D-04
 IDIUse=3 WtCom= 9.98D-01 WtEn= 2.03D-03
 Coeff-Com:  0.363D-02-0.709D-02-0.589D-02-0.314D-01 0.451D-01 0.435D+00
 Coeff-Com:  0.560D+00
 Coeff-En:   0.000D+00 0.000D+00 0.000D+00 0.000D+00 0.000D+00 0.000D+00
 Coeff-En:   0.100D+01
 Coeff:      0.363D-02-0.707D-02-0.588D-02-0.314D-01 0.451D-01 0.434D+00
 Coeff:      0.561D+00
 Gap=     0.243 Goal=   None    Shift=    0.000
 Gap=     0.173 Goal=   None    Shift=    0.000
 RMSDP=2.63D-05 MaxDP=1.52D-03 DE=-7.73D-05 OVMax= 3.54D-03

 Cycle   8  Pass 0  IDiag  1:
 RMSU=  1.88D-05    CP:  9.48D-01  2.01D+00  5.51D-01  6.78D-01  7.44D-01
                    CP:  1.10D+00  7.92D-01
 E= -481.618332985034     Delta-E=       -0.000039951041 Rises=F Damp=F
 DIIS: error= 1.38D-04 at cycle   8 NSaved=   8.
 NSaved= 8 IEnMin= 8 EnMin= -481.618332985034     IErMin= 8 ErrMin= 1.38D-04
 ErrMax= 1.38D-04  0.00D+00 EMaxC= 1.00D-01 BMatC= 3.64D-05 BMatP= 1.52D-04
 IDIUse=3 WtCom= 9.99D-01 WtEn= 1.38D-03
 Coeff-Com: -0.203D-02 0.380D-02-0.665D-02-0.333D-01-0.497D-01-0.681D-01
 Coeff-Com:  0.188D+00 0.967D+00
 Coeff-En:   0.000D+00 0.000D+00 0.000D+00 0.000D+00 0.000D+00 0.000D+00
 Coeff-En:   0.000D+00 0.100D+01
 Coeff:     -0.203D-02 0.380D-02-0.664D-02-0.332D-01-0.497D-01-0.680D-01
 Coeff:      0.188D+00 0.968D+00
 Gap=     0.242 Goal=   None    Shift=    0.000
 Gap=     0.173 Goal=   None    Shift=    0.000
 RMSDP=1.87D-05 MaxDP=1.84D-03 DE=-4.00D-05 OVMax= 3.91D-03

 Cycle   9  Pass 0  IDiag  1:
 RMSU=  7.86D-06    CP:  9.48D-01  2.01D+00  5.53D-01  6.78D-01  7.66D-01
                    CP:  1.21D+00  1.07D+00  1.26D+00
 E= -481.618347167198     Delta-E=       -0.000014182164 Rises=F Damp=F
 DIIS: error= 7.55D-05 at cycle   9 NSaved=   9.
 NSaved= 9 IEnMin= 9 EnMin= -481.618347167198     IErMin= 9 ErrMin= 7.55D-05
 ErrMax= 7.55D-05  0.00D+00 EMaxC= 1.00D-01 BMatC= 7.88D-06 BMatP= 3.64D-05
 IDIUse=1 WtCom= 1.00D+00 WtEn= 0.00D+00
 Coeff-Com: -0.284D-03 0.107D-02-0.294D-03-0.849D-02-0.253D-01-0.114D+00
 Coeff-Com: -0.465D-01 0.368D+00 0.826D+00
 Coeff:     -0.284D-03 0.107D-02-0.294D-03-0.849D-02-0.253D-01-0.114D+00
 Coeff:     -0.465D-01 0.368D+00 0.826D+00
 Gap=     0.243 Goal=   None    Shift=    0.000
 Gap=     0.173 Goal=   None    Shift=    0.000
 RMSDP=1.03D-05 MaxDP=7.95D-04 DE=-1.42D-05 OVMax= 1.80D-03

 Cycle  10  Pass 0  IDiag  1:
 RMSU=  3.94D-06    CP:  9.48D-01  2.01D+00  5.56D-01  6.75D-01  7.74D-01
                    CP:  1.27D+00  1.18D+00  1.47D+00  1.02D+00
 E= -481.618350214866     Delta-E=       -0.000003047668 Rises=F Damp=F
 DIIS: error= 2.47D-05 at cycle  10 NSaved=  10.
 NSaved=10 IEnMin=10 EnMin= -481.618350214866     IErMin=10 ErrMin= 2.47D-05
 ErrMax= 2.47D-05  0.00D+00 EMaxC= 1.00D-01 BMatC= 1.34D-06 BMatP= 7.88D-06
 IDIUse=1 WtCom= 1.00D+00 WtEn= 0.00D+00
 Coeff-Com:  0.741D-03-0.101D-02 0.191D-02 0.416D-02 0.187D-02-0.357D-01
 Coeff-Com: -0.754D-01-0.100D+00 0.377D+00 0.827D+00
 Coeff:      0.741D-03-0.101D-02 0.191D-02 0.416D-02 0.187D-02-0.357D-01
 Coeff:     -0.754D-01-0.100D+00 0.377D+00 0.827D+00
 Gap=     0.243 Goal=   None    Shift=    0.000
 Gap=     0.173 Goal=   None    Shift=    0.000
 RMSDP=4.81D-06 MaxDP=4.37D-04 DE=-3.05D-06 OVMax= 1.01D-03

 Initial convergence to 1.0D-05 achieved.  Increase integral accuracy.
 Cycle  11  Pass 1  IDiag  1:
 E= -481.618354839102     Delta-E=       -0.000004624236 Rises=F Damp=F
 DIIS: error= 1.42D-05 at cycle   1 NSaved=   1.
 NSaved= 1 IEnMin= 1 EnMin= -481.618354839102     IErMin= 1 ErrMin= 1.42D-05
 ErrMax= 1.42D-05  0.00D+00 EMaxC= 1.00D-01 BMatC= 4.55D-07 BMatP= 4.55D-07
 IDIUse=1 WtCom= 1.00D+00 WtEn= 0.00D+00
 Coeff-Com:  0.100D+01
 Coeff:      0.100D+01
 Gap=     0.243 Goal=   None    Shift=    0.000
 Gap=     0.173 Goal=   None    Shift=    0.000
 RMSDP=4.81D-06 MaxDP=4.37D-04 DE=-4.62D-06 OVMax= 1.04D-04

 Cycle  12  Pass 1  IDiag  1:
 RMSU=  1.01D-05    CP:  1.00D+00
 E= -481.618354930153     Delta-E=       -0.000000091051 Rises=F Damp=F
 DIIS: error= 7.39D-06 at cycle   2 NSaved=   2.
 NSaved= 2 IEnMin= 2 EnMin= -481.618354930153     IErMin= 2 ErrMin= 7.39D-06
 ErrMax= 7.39D-06  0.00D+00 EMaxC= 1.00D-01 BMatC= 1.22D-07 BMatP= 4.55D-07
 IDIUse=1 WtCom= 1.00D+00 WtEn= 0.00D+00
 Coeff-Com:  0.246D+00 0.754D+00
 Coeff:      0.246D+00 0.754D+00
 Gap=     0.243 Goal=   None    Shift=    0.000
 Gap=     0.173 Goal=   None    Shift=    0.000
 RMSDP=1.33D-06 MaxDP=1.30D-04 DE=-9.11D-08 OVMax= 2.84D-04

 Cycle  13  Pass 1  IDiag  1:
 RMSU=  1.32D-06    CP:  1.00D+00  1.01D+00
 E= -481.618354901078     Delta-E=        0.000000029076 Rises=F Damp=F
 DIIS: error= 1.32D-05 at cycle   3 NSaved=   3.
 NSaved= 3 IEnMin= 2 EnMin= -481.618354930153     IErMin= 2 ErrMin= 7.39D-06
 ErrMax= 1.32D-05  0.00D+00 EMaxC= 1.00D-01 BMatC= 3.46D-07 BMatP= 1.22D-07
 IDIUse=1 WtCom= 1.00D+00 WtEn= 0.00D+00
 Coeff-Com: -0.538D-02 0.638D+00 0.367D+00
 Coeff:     -0.538D-02 0.638D+00 0.367D+00
 Gap=     0.243 Goal=   None    Shift=    0.000
 Gap=     0.173 Goal=   None    Shift=    0.000
 RMSDP=7.75D-07 MaxDP=5.50D-05 DE= 2.91D-08 OVMax= 1.02D-04

 Cycle  14  Pass 1  IDiag  1:
 RMSU=  4.31D-07    CP:  1.00D+00  1.03D+00  5.34D-01
 E= -481.618354968992     Delta-E=       -0.000000067914 Rises=F Damp=F
 DIIS: error= 1.61D-06 at cycle   4 NSaved=   4.
 NSaved= 4 IEnMin= 4 EnMin= -481.618354968992     IErMin= 4 ErrMin= 1.61D-06
 ErrMax= 1.61D-06  0.00D+00 EMaxC= 1.00D-01 BMatC= 7.96D-09 BMatP= 1.22D-07
 IDIUse=1 WtCom= 1.00D+00 WtEn= 0.00D+00
 Coeff-Com: -0.262D-01 0.254D+00 0.125D+00 0.646D+00
 Coeff:     -0.262D-01 0.254D+00 0.125D+00 0.646D+00
 Gap=     0.243 Goal=   None    Shift=    0.000
 Gap=     0.173 Goal=   None    Shift=    0.000
 RMSDP=2.59D-07 MaxDP=2.31D-05 DE=-6.79D-08 OVMax= 4.45D-05

 Cycle  15  Pass 1  IDiag  1:
 RMSU=  2.40D-07    CP:  1.00D+00  1.04D+00  5.03D-01  1.08D+00
 E= -481.618354972137     Delta-E=       -0.000000003145 Rises=F Damp=F
 DIIS: error= 1.57D-06 at cycle   5 NSaved=   5.
 NSaved= 5 IEnMin= 5 EnMin= -481.618354972137     IErMin= 5 ErrMin= 1.57D-06
 ErrMax= 1.57D-06  0.00D+00 EMaxC= 1.00D-01 BMatC= 4.50D-09 BMatP= 7.96D-09
 IDIUse=1 WtCom= 1.00D+00 WtEn= 0.00D+00
 Coeff-Com: -0.185D-02-0.243D+00-0.235D+00 0.232D+00 0.125D+01
 Coeff:     -0.185D-02-0.243D+00-0.235D+00 0.232D+00 0.125D+01
 Gap=     0.243 Goal=   None    Shift=    0.000
 Gap=     0.173 Goal=   None    Shift=    0.000
 RMSDP=2.95D-07 MaxDP=2.55D-05 DE=-3.15D-09 OVMax= 5.52D-05

 Cycle  16  Pass 1  IDiag  1:
 RMSU=  1.21D-07    CP:  1.00D+00  1.04D+00  5.20D-01  1.64D+00  1.50D+00
 E= -481.618354974821     Delta-E=       -0.000000002683 Rises=F Damp=F
 DIIS: error= 6.16D-07 at cycle   6 NSaved=   6.
 NSaved= 6 IEnMin= 6 EnMin= -481.618354974821     IErMin= 6 ErrMin= 6.16D-07
 ErrMax= 6.16D-07  0.00D+00 EMaxC= 1.00D-01 BMatC= 6.45D-10 BMatP= 4.50D-09
 IDIUse=1 WtCom= 1.00D+00 WtEn= 0.00D+00
 Coeff-Com:  0.415D-02-0.168D+00-0.156D+00 0.213D-01 0.598D+00 0.700D+00
 Coeff:      0.415D-02-0.168D+00-0.156D+00 0.213D-01 0.598D+00 0.700D+00
 Gap=     0.243 Goal=   None    Shift=    0.000
 Gap=     0.173 Goal=   None    Shift=    0.000
 RMSDP=1.02D-07 MaxDP=1.00D-05 DE=-2.68D-09 OVMax= 1.90D-05

 Cycle  17  Pass 1  IDiag  1:
 RMSU=  5.29D-08    CP:  1.00D+00  1.04D+00  5.21D-01  1.81D+00  1.69D+00
                    CP:  1.08D+00
 E= -481.618354975111     Delta-E=       -0.000000000291 Rises=F Damp=F
 DIIS: error= 1.88D-07 at cycle   7 NSaved=   7.
 NSaved= 7 IEnMin= 7 EnMin= -481.618354975111     IErMin= 7 ErrMin= 1.88D-07
 ErrMax= 1.88D-07  0.00D+00 EMaxC= 1.00D-01 BMatC= 1.22D-10 BMatP= 6.45D-10
 IDIUse=1 WtCom= 1.00D+00 WtEn= 0.00D+00
 Coeff-Com:  0.239D-02-0.629D-01-0.629D-01-0.370D-02 0.182D+00 0.377D+00
 Coeff-Com:  0.568D+00
 Coeff:      0.239D-02-0.629D-01-0.629D-01-0.370D-02 0.182D+00 0.377D+00
 Coeff:      0.568D+00
 Gap=     0.243 Goal=   None    Shift=    0.000
 Gap=     0.173 Goal=   None    Shift=    0.000
 RMSDP=2.95D-08 MaxDP=1.59D-06 DE=-2.91D-10 OVMax= 4.07D-06

 Cycle  18  Pass 1  IDiag  1:
 RMSU=  2.20D-08    CP:  1.00D+00  1.04D+00  5.18D-01  1.84D+00  1.73D+00
                    CP:  1.16D+00  9.00D-01
 E= -481.618354975146     Delta-E=       -0.000000000035 Rises=F Damp=F
 DIIS: error= 1.02D-07 at cycle   8 NSaved=   8.
 NSaved= 8 IEnMin= 8 EnMin= -481.618354975146     IErMin= 8 ErrMin= 1.02D-07
 ErrMax= 1.02D-07  0.00D+00 EMaxC= 1.00D-01 BMatC= 2.89D-11 BMatP= 1.22D-10
 IDIUse=1 WtCom= 1.00D+00 WtEn= 0.00D+00
 Coeff-Com: -0.289D-03 0.290D-01 0.193D-01-0.215D-02-0.127D+00-0.564D-01
 Coeff-Com:  0.285D+00 0.852D+00
 Coeff:     -0.289D-03 0.290D-01 0.193D-01-0.215D-02-0.127D+00-0.564D-01
 Coeff:      0.285D+00 0.852D+00
 Gap=     0.243 Goal=   None    Shift=    0.000
 Gap=     0.173 Goal=   None    Shift=    0.000
 RMSDP=1.76D-08 MaxDP=1.44D-06 DE=-3.50D-11 OVMax= 3.13D-06

 Cycle  19  Pass 1  IDiag  1:
 RMSU=  9.58D-09    CP:  1.00D+00  1.04D+00  5.16D-01  1.86D+00  1.75D+00
                    CP:  1.22D+00  1.06D+00  1.01D+00
 E= -481.618354975124     Delta-E=        0.000000000022 Rises=F Damp=F
 DIIS: error= 4.90D-08 at cycle   9 NSaved=   9.
 NSaved= 9 IEnMin= 8 EnMin= -481.618354975146     IErMin= 9 ErrMin= 4.90D-08
 ErrMax= 4.90D-08  0.00D+00 EMaxC= 1.00D-01 BMatC= 5.33D-12 BMatP= 2.89D-11
 IDIUse=1 WtCom= 1.00D+00 WtEn= 0.00D+00
 Coeff-Com: -0.538D-03 0.253D-01 0.188D-01 0.163D-02-0.963D-01-0.907D-01
 Coeff-Com:  0.545D-01 0.434D+00 0.654D+00
 Coeff:     -0.538D-03 0.253D-01 0.188D-01 0.163D-02-0.963D-01-0.907D-01
 Coeff:      0.545D-01 0.434D+00 0.654D+00
 Gap=     0.243 Goal=   None    Shift=    0.000
 Gap=     0.173 Goal=   None    Shift=    0.000
 RMSDP=6.94D-09 MaxDP=4.37D-07 DE= 2.23D-11 OVMax= 9.90D-07

 SCF Done:  E(UPBE1PBE) =  -481.618354975     A.U. after   19 cycles
            NFock= 19  Conv=0.69D-08     -V/T= 1.9984
 <Sx>= 0.0000 <Sy>= 0.0000 <Sz>= 0.5000 <S**2>= 0.7560 S= 0.5030
 <L.S>=  0.00000000000    
 KE= 4.823688490602D+02 PE=-2.498681095957D+03 EE= 8.465955509280D+02
 Annihilation of the first spin contaminant:
 S**2 before annihilation     0.7560,   after     0.7500
 Leave Link  502 at Sun Jun 23 21:42:01 2019, MaxMem=  8053063680 cpu:               0.0 elap:              59.9
 (Enter /data2/g16/g16/l601.exe)
 Copying SCF densities to generalized density rwf, IOpCl= 1 IROHF=0.

 **********************************************************************

            Population analysis using the SCF Density.

 **********************************************************************

 Orbital symmetries:
 Alpha Orbitals:
       Occupied  (A) (A) (A) (A) (A) (A) (A) (A) (A) (A) (A) (A)
                 (A) (A) (A) (A) (A) (A) (A) (A) (A) (A) (A) (A)
                 (A) (A) (A) (A) (A) (A) (A) (A) (A) (A) (A) (A)
                 (A) (A) (A) (A) (A) (A) (A)
       Virtual   (A) (A) (A) (A) (A) (A) (A) (A) (A) (A) (A) (A)
                 (A) (A) (A) (A) (A) (A) (A) (A) (A) (A) (A) (A)
                 (A) (A) (A) (A) (A) (A) (A) (A) (A) (A) (A) (A)
                 (A) (A) (A) (A) (A) (A) (A) (A) (A) (A) (A) (A)
                 (A) (A) (A) (A) (A) (A) (A) (A) (A) (A) (A) (A)
                 (A) (A) (A) (A) (A) (A) (A) (A) (A) (A) (A) (A)
                 (A) (A) (A) (A) (A) (A) (A) (A) (A) (A) (A) (A)
                 (A) (A) (A) (A) (A) (A) (A) (A) (A) (A) (A) (A)
                 (A) (A) (A) (A) (A) (A) (A) (A) (A) (A) (A) (A)
                 (A) (A) (A) (A) (A) (A) (A) (A) (A) (A) (A) (A)
                 (A) (A) (A) (A) (A) (A) (A) (A) (A) (A) (A) (A)
                 (A) (A) (A) (A) (A) (A) (A) (A) (A) (A) (A) (A)
                 (A) (A) (A) (A) (A) (A) (A) (A) (A) (A) (A) (A)
                 (A) (A) (A) (A) (A) (A) (A) (A) (A) (A) (A) (A)
                 (A) (A) (A) (A) (A) (A) (A) (A) (A) (A) (A) (A)
                 (A) (A) (A) (A) (A) (A) (A) (A) (A) (A) (A) (A)
                 (A) (A) (A) (A) (A) (A) (A) (A) (A) (A) (A) (A)
                 (A) (A) (A) (A) (A) (A) (A) (A) (A) (A) (A) (A)
                 (A) (A) (A) (A) (A) (A) (A) (A) (A) (A) (A) (A)
                 (A) (A) (A) (A) (A) (A) (A) (A) (A) (A) (A) (A)
                 (A) (A) (A) (A) (A) (A) (A) (A) (A) (A) (A) (A)
                 (A) (A) (A) (A) (A) (A) (A) (A) (A) (A) (A) (A)
                 (A) (A) (A) (A)
 Beta  Orbitals:
       Occupied  (A) (A) (A) (A) (A) (A) (A) (A) (A) (A) (A) (A)
                 (A) (A) (A) (A) (A) (A) (A) (A) (A) (A) (A) (A)
                 (A) (A) (A) (A) (A) (A) (A) (A) (A) (A) (A) (A)
                 (A) (A) (A) (A) (A) (A)
       Virtual   (A) (A) (A) (A) (A) (A) (A) (A) (A) (A) (A) (A)
                 (A) (A) (A) (A) (A) (A) (A) (A) (A) (A) (A) (A)
                 (A) (A) (A) (A) (A) (A) (A) (A) (A) (A) (A) (A)
                 (A) (A) (A) (A) (A) (A) (A) (A) (A) (A) (A) (A)
                 (A) (A) (A) (A) (A) (A) (A) (A) (A) (A) (A) (A)
                 (A) (A) (A) (A) (A) (A) (A) (A) (A) (A) (A) (A)
                 (A) (A) (A) (A) (A) (A) (A) (A) (A) (A) (A) (A)
                 (A) (A) (A) (A) (A) (A) (A) (A) (A) (A) (A) (A)
                 (A) (A) (A) (A) (A) (A) (A) (A) (A) (A) (A) (A)
                 (A) (A) (A) (A) (A) (A) (A) (A) (A) (A) (A) (A)
                 (A) (A) (A) (A) (A) (A) (A) (A) (A) (A) (A) (A)
                 (A) (A) (A) (A) (A) (A) (A) (A) (A) (A) (A) (A)
                 (A) (A) (A) (A) (A) (A) (A) (A) (A) (A) (A) (A)
                 (A) (A) (A) (A) (A) (A) (A) (A) (A) (A) (A) (A)
                 (A) (A) (A) (A) (A) (A) (A) (A) (A) (A) (A) (A)
                 (A) (A) (A) (A) (A) (A) (A) (A) (A) (A) (A) (A)
                 (A) (A) (A) (A) (A) (A) (A) (A) (A) (A) (A) (A)
                 (A) (A) (A) (A) (A) (A) (A) (A) (A) (A) (A) (A)
                 (A) (A) (A) (A) (A) (A) (A) (A) (A) (A) (A) (A)
                 (A) (A) (A) (A) (A) (A) (A) (A) (A) (A) (A) (A)
                 (A) (A) (A) (A) (A) (A) (A) (A) (A) (A) (A) (A)
                 (A) (A) (A) (A) (A) (A) (A) (A) (A) (A) (A) (A)
                 (A) (A) (A) (A) (A)
 The electronic state is 2-A.
 Alpha  occ. eigenvalues --  -19.24270 -14.47873 -10.28476 -10.27837 -10.24925
 Alpha  occ. eigenvalues --  -10.21431 -10.20308 -10.17643 -10.17345 -10.17024
 Alpha  occ. eigenvalues --  -10.16915  -1.04828  -0.91623  -0.85437  -0.81501
 Alpha  occ. eigenvalues --   -0.77964  -0.76339  -0.75601  -0.73578  -0.65951
 Alpha  occ. eigenvalues --   -0.58647  -0.56485  -0.51669  -0.49509  -0.49322
 Alpha  occ. eigenvalues --   -0.48484  -0.46466  -0.45923  -0.45289  -0.45031
 Alpha  occ. eigenvalues --   -0.44672  -0.43709  -0.43270  -0.40976  -0.40468
 Alpha  occ. eigenvalues --   -0.38859  -0.37076  -0.36412  -0.35684  -0.34682
 Alpha  occ. eigenvalues --   -0.27615  -0.25969  -0.24368
 Alpha virt. eigenvalues --   -0.00118   0.03112   0.03681   0.04169   0.04956
 Alpha virt. eigenvalues --    0.05944   0.06172   0.06452   0.07039   0.08190
 Alpha virt. eigenvalues --    0.08936   0.09702   0.09867   0.10036   0.10701
 Alpha virt. eigenvalues --    0.11183   0.11847   0.12538   0.13383   0.14115
 Alpha virt. eigenvalues --    0.14713   0.15356   0.15660   0.16277   0.17909
 Alpha virt. eigenvalues --    0.18378   0.18831   0.19045   0.20291   0.21126
 Alpha virt. eigenvalues --    0.21515   0.21983   0.22880   0.23287   0.23560
 Alpha virt. eigenvalues --    0.24479   0.26081   0.26370   0.26969   0.28098
 Alpha virt. eigenvalues --    0.28682   0.29462   0.29989   0.30797   0.32104
 Alpha virt. eigenvalues --    0.32761   0.33101   0.33625   0.34098   0.34987
 Alpha virt. eigenvalues --    0.35349   0.36319   0.36685   0.37759   0.38801
 Alpha virt. eigenvalues --    0.41351   0.43557   0.47034   0.47736   0.48692
 Alpha virt. eigenvalues --    0.49692   0.51120   0.51835   0.52972   0.53762
 Alpha virt. eigenvalues --    0.55505   0.56830   0.57493   0.58468   0.58710
 Alpha virt. eigenvalues --    0.59775   0.60523   0.62560   0.63384   0.63716
 Alpha virt. eigenvalues --    0.65881   0.67109   0.67741   0.68132   0.69599
 Alpha virt. eigenvalues --    0.70783   0.72328   0.73849   0.74443   0.76051
 Alpha virt. eigenvalues --    0.78369   0.78936   0.80006   0.81330   0.83268
 Alpha virt. eigenvalues --    0.83899   0.84778   0.86870   0.87525   0.90394
 Alpha virt. eigenvalues --    0.93219   0.94106   0.95394   0.95871   0.96451
 Alpha virt. eigenvalues --    0.97308   0.98243   0.98390   0.98893   1.00104
 Alpha virt. eigenvalues --    1.00711   1.03060   1.03651   1.04442   1.05680
 Alpha virt. eigenvalues --    1.08521   1.09880   1.11102   1.12534   1.13950
 Alpha virt. eigenvalues --    1.14466   1.16422   1.16830   1.19004   1.20743
 Alpha virt. eigenvalues --    1.24870   1.28753   1.30878   1.32572   1.35280
 Alpha virt. eigenvalues --    1.36898   1.38431   1.41776   1.43587   1.49652
 Alpha virt. eigenvalues --    1.52095   1.53616   1.55225   1.58673   1.59851
 Alpha virt. eigenvalues --    1.61552   1.62248   1.63694   1.64572   1.66947
 Alpha virt. eigenvalues --    1.67640   1.68957   1.70596   1.72575   1.76114
 Alpha virt. eigenvalues --    1.76917   1.77801   1.79737   1.81773   1.82188
 Alpha virt. eigenvalues --    1.83855   1.84075   1.85061   1.85416   1.88213
 Alpha virt. eigenvalues --    1.88793   1.89238   1.89701   1.91367   1.92294
 Alpha virt. eigenvalues --    1.94174   1.94830   1.96818   1.99862   2.01848
 Alpha virt. eigenvalues --    2.04367   2.05446   2.07205   2.09827   2.09990
 Alpha virt. eigenvalues --    2.10698   2.14029   2.15641   2.17667   2.18090
 Alpha virt. eigenvalues --    2.19740   2.21805   2.25814   2.27118   2.28347
 Alpha virt. eigenvalues --    2.29774   2.32357   2.40246   2.41639   2.43875
 Alpha virt. eigenvalues --    2.44314   2.48673   2.51328   2.52622   2.54560
 Alpha virt. eigenvalues --    2.57666   2.61112   2.63182   2.64196   2.65471
 Alpha virt. eigenvalues --    2.67020   2.70314   2.71826   2.73220   2.78205
 Alpha virt. eigenvalues --    2.79354   2.79680   2.81660   2.84743   2.85833
 Alpha virt. eigenvalues --    2.87221   2.90685   2.92518   2.92999   2.98362
 Alpha virt. eigenvalues --    2.99435   3.00269   3.01532   3.03320   3.04037
 Alpha virt. eigenvalues --    3.06025   3.06734   3.07447   3.08396   3.09105
 Alpha virt. eigenvalues --    3.11417   3.12332   3.14218   3.14940   3.15292
 Alpha virt. eigenvalues --    3.17737   3.18630   3.22737   3.31526   3.35726
 Alpha virt. eigenvalues --    3.41598   3.45889   3.47435   3.49605   3.58566
 Alpha virt. eigenvalues --    3.59498   3.60306   3.61788   3.63887   3.64955
 Alpha virt. eigenvalues --    3.65835   3.67064   3.71478   3.72870   3.75176
 Alpha virt. eigenvalues --    3.76850   4.48684   4.61917   4.66702   4.78863
 Alpha virt. eigenvalues --    4.89466   4.92022   4.97623   5.00438   5.09495
 Alpha virt. eigenvalues --    5.38636   5.97071  58.51145  58.51712  58.52224
 Alpha virt. eigenvalues --   58.59187  58.59848  58.62351  58.62642  58.62949
 Alpha virt. eigenvalues --   58.63104  95.55498 106.34913
  Beta  occ. eigenvalues --  -19.22580 -14.46938 -10.28465 -10.27827 -10.24921
  Beta  occ. eigenvalues --  -10.21428 -10.20307 -10.17622 -10.17329 -10.16997
  Beta  occ. eigenvalues --  -10.16893  -1.02155  -0.90158  -0.85315  -0.81126
  Beta  occ. eigenvalues --   -0.77225  -0.76251  -0.75534  -0.72625  -0.65814
  Beta  occ. eigenvalues --   -0.58102  -0.56137  -0.51301  -0.49259  -0.48428
  Beta  occ. eigenvalues --   -0.48327  -0.46231  -0.45706  -0.45254  -0.44977
  Beta  occ. eigenvalues --   -0.44616  -0.43561  -0.43225  -0.40125  -0.39245
  Beta  occ. eigenvalues --   -0.38314  -0.36913  -0.35836  -0.34773  -0.29401
  Beta  occ. eigenvalues --   -0.26213  -0.25301
  Beta virt. eigenvalues --   -0.07994  -0.00083   0.03119   0.03699   0.04237
  Beta virt. eigenvalues --    0.05008   0.06017   0.06243   0.06526   0.07178
  Beta virt. eigenvalues --    0.08231   0.09102   0.09744   0.09895   0.10247
  Beta virt. eigenvalues --    0.10758   0.11282   0.12290   0.12571   0.13590
  Beta virt. eigenvalues --    0.14476   0.15000   0.15443   0.15706   0.16392
  Beta virt. eigenvalues --    0.18488   0.18592   0.18925   0.19164   0.20451
  Beta virt. eigenvalues --    0.21310   0.21802   0.22158   0.23183   0.23548
  Beta virt. eigenvalues --    0.23637   0.24550   0.26198   0.26455   0.27059
  Beta virt. eigenvalues --    0.28176   0.28873   0.29556   0.30148   0.30954
  Beta virt. eigenvalues --    0.32454   0.32928   0.33189   0.33700   0.34193
  Beta virt. eigenvalues --    0.35126   0.35462   0.36365   0.36737   0.37919
  Beta virt. eigenvalues --    0.38870   0.41447   0.43602   0.47068   0.47814
  Beta virt. eigenvalues --    0.48801   0.49837   0.51342   0.52084   0.53160
  Beta virt. eigenvalues --    0.54034   0.55541   0.56910   0.57578   0.58748
  Beta virt. eigenvalues --    0.58894   0.59898   0.60570   0.62653   0.63497
  Beta virt. eigenvalues --    0.64073   0.65970   0.67322   0.67942   0.68403
  Beta virt. eigenvalues --    0.69740   0.70945   0.72609   0.74018   0.74738
  Beta virt. eigenvalues --    0.76293   0.78511   0.79130   0.80244   0.81563
  Beta virt. eigenvalues --    0.83360   0.83935   0.84991   0.87073   0.87643
  Beta virt. eigenvalues --    0.90451   0.93287   0.94570   0.95663   0.96161
  Beta virt. eigenvalues --    0.96901   0.97431   0.98322   0.98550   0.99421
  Beta virt. eigenvalues --    1.00509   1.00936   1.03460   1.03736   1.04547
  Beta virt. eigenvalues --    1.06063   1.08674   1.09985   1.11634   1.12686
  Beta virt. eigenvalues --    1.14103   1.14562   1.16620   1.17036   1.19294
  Beta virt. eigenvalues --    1.21403   1.25495   1.28845   1.31053   1.33209
  Beta virt. eigenvalues --    1.35414   1.37006   1.39851   1.42654   1.43757
  Beta virt. eigenvalues --    1.49737   1.52290   1.53804   1.55519   1.58717
  Beta virt. eigenvalues --    1.59989   1.61601   1.62280   1.63902   1.64697
  Beta virt. eigenvalues --    1.67075   1.67738   1.69271   1.71073   1.72825
  Beta virt. eigenvalues --    1.76630   1.77047   1.77936   1.79993   1.81993
  Beta virt. eigenvalues --    1.82256   1.83989   1.84305   1.85283   1.85504
  Beta virt. eigenvalues --    1.88400   1.88909   1.89430   1.89827   1.91573
  Beta virt. eigenvalues --    1.92330   1.94260   1.94925   1.96888   1.99978
  Beta virt. eigenvalues --    2.02039   2.04604   2.05647   2.07632   2.09998
  Beta virt. eigenvalues --    2.10330   2.10835   2.14300   2.15854   2.18263
  Beta virt. eigenvalues --    2.18530   2.19948   2.21992   2.26286   2.27480
  Beta virt. eigenvalues --    2.28850   2.29927   2.32543   2.40348   2.42008
  Beta virt. eigenvalues --    2.44040   2.45127   2.48918   2.51778   2.53306
  Beta virt. eigenvalues --    2.54896   2.57914   2.61438   2.63323   2.64313
  Beta virt. eigenvalues --    2.65642   2.67232   2.70526   2.71943   2.73418
  Beta virt. eigenvalues --    2.78510   2.79520   2.80065   2.81834   2.84879
  Beta virt. eigenvalues --    2.87252   2.89472   2.92375   2.93882   2.95691
  Beta virt. eigenvalues --    2.99366   2.99693   3.00508   3.02199   3.03522
  Beta virt. eigenvalues --    3.05910   3.06172   3.07017   3.07525   3.08507
  Beta virt. eigenvalues --    3.09275   3.11698   3.12716   3.14609   3.15028
  Beta virt. eigenvalues --    3.15763   3.17790   3.18687   3.23090   3.31672
  Beta virt. eigenvalues --    3.35886   3.41635   3.45992   3.47699   3.49693
  Beta virt. eigenvalues --    3.58654   3.59508   3.60343   3.61837   3.63930
  Beta virt. eigenvalues --    3.65033   3.65881   3.67158   3.71499   3.72955
  Beta virt. eigenvalues --    3.75810   3.77645   4.48795   4.61985   4.66874
  Beta virt. eigenvalues --    4.78888   4.89549   4.92070   4.97730   5.00460
  Beta virt. eigenvalues --    5.09546   5.40155   6.00050  58.51156  58.51721
  Beta virt. eigenvalues --   58.52228  58.59187  58.59851  58.62367  58.62656
  Beta virt. eigenvalues --   58.62971  58.63124  95.56245 106.36271
          Condensed to atoms (all electrons):
               1          2          3          4          5          6
     1  C    5.373949   0.281603  -0.048360   0.016905  -0.138797   0.012357
     2  C    0.281603   5.136389   0.660610  -0.061522  -0.070323  -0.010111
     3  C   -0.048360   0.660610   5.180281   0.246538   0.281712  -0.049957
     4  C    0.016905  -0.061522   0.246538   4.967981  -0.062343   0.006947
     5  C   -0.138797  -0.070323   0.281712  -0.062343   5.412763   0.265798
     6  C    0.012357  -0.010111  -0.049957   0.006947   0.265798   4.965803
     7  C    0.019313   0.003258  -0.058333   0.004528   0.276406  -0.059570
     8  C    0.286635  -0.056196  -0.004589  -0.000767   0.017887  -0.003941
     9  C    0.267570  -0.052287  -0.006692  -0.001611   0.019386   0.006697
    10  N    0.164231  -0.075156  -0.012738   0.010111   0.162483  -0.064429
    11  O   -0.081825   0.003150   0.012440  -0.002370  -0.090273  -0.021029
    12  H   -0.074149   0.438116  -0.049004  -0.004234   0.016927  -0.001222
    13  H    0.002363   0.010072  -0.067833   0.438562   0.002589  -0.000584
    14  H   -0.001362   0.001810  -0.054914   0.429629  -0.008440   0.002393
    15  H   -0.000975   0.002391   0.000892   0.003534  -0.056162   0.428555
    16  H    0.005012  -0.001501   0.004655  -0.001480  -0.061420   0.443190
    17  H   -0.001221   0.001397   0.015920  -0.001169  -0.071474   0.432083
    18  H   -0.002385   0.001594  -0.002686   0.002892  -0.066022   0.002083
    19  H    0.007768  -0.004002  -0.001516   0.000622  -0.070926   0.010815
    20  H    0.002727  -0.002854   0.004092  -0.001061  -0.050823  -0.005167
    21  H   -0.064423  -0.013171  -0.001071  -0.000509   0.006927  -0.000189
    22  H   -0.041154   0.006789  -0.001413   0.000046   0.001163   0.000349
    23  H   -0.073121   0.020911   0.002381   0.000069  -0.003449   0.000277
    24  H   -0.070147   0.002342   0.005437  -0.000593  -0.003310  -0.000960
    25  H   -0.065566   0.015680   0.003365  -0.000059  -0.001747   0.000137
    26  H   -0.046036   0.003089  -0.001078   0.000079   0.003790   0.000905
    27  H    0.000857   0.002251  -0.045300   0.409611   0.002046   0.002049
               7          8          9         10         11         12
     1  C    0.019313   0.286635   0.267570   0.164231  -0.081825  -0.074149
     2  C    0.003258  -0.056196  -0.052287  -0.075156   0.003150   0.438116
     3  C   -0.058333  -0.004589  -0.006692  -0.012738   0.012440  -0.049004
     4  C    0.004528  -0.000767  -0.001611   0.010111  -0.002370  -0.004234
     5  C    0.276406   0.017887   0.019386   0.162483  -0.090273   0.016927
     6  C   -0.059570  -0.003941   0.006697  -0.064429  -0.021029  -0.001222
     7  C    4.984754   0.000709  -0.004243  -0.064611  -0.002735  -0.001380
     8  C    0.000709   4.988848  -0.062110  -0.069791  -0.000317   0.002071
     9  C   -0.004243  -0.062110   4.983697  -0.062235  -0.023631   0.006140
    10  N   -0.064611  -0.069791  -0.062235   7.041316   0.185103   0.005778
    11  O   -0.002735  -0.000317  -0.023631   0.185103   8.441444  -0.000856
    12  H   -0.001380   0.002071   0.006140   0.005778  -0.000856   0.507066
    13  H    0.000784   0.000111  -0.000122  -0.002884   0.000063   0.000678
    14  H    0.004126   0.000213  -0.000020   0.001517  -0.000023   0.000023
    15  H   -0.000761   0.000043   0.000049   0.002046   0.001328  -0.000001
    16  H   -0.003314  -0.000119   0.000734  -0.004497   0.003521   0.000018
    17  H    0.011104  -0.000062  -0.000593  -0.006932  -0.000565  -0.000110
    18  H    0.425251   0.000114   0.000237   0.012514  -0.001203  -0.000003
    19  H    0.433888  -0.000480  -0.000268   0.001938   0.001444  -0.000020
    20  H    0.433444  -0.000392   0.000328  -0.002906   0.007148   0.000008
    21  H   -0.000743   0.433106   0.010804   0.009009   0.000605   0.000013
    22  H   -0.000448   0.431141  -0.003018  -0.015068   0.007755  -0.000036
    23  H    0.000096   0.424219  -0.000530   0.003738  -0.001083   0.000340
    24  H    0.000062   0.011033   0.430746  -0.000386   0.000242   0.000178
    25  H    0.000047  -0.002327   0.428067  -0.001724   0.001897   0.000895
    26  H   -0.000123  -0.002987   0.439746  -0.009484   0.002433  -0.000032
    27  H   -0.000720  -0.000123   0.000354  -0.001256   0.000066   0.000660
              13         14         15         16         17         18
     1  C    0.002363  -0.001362  -0.000975   0.005012  -0.001221  -0.002385
     2  C    0.010072   0.001810   0.002391  -0.001501   0.001397   0.001594
     3  C   -0.067833  -0.054914   0.000892   0.004655   0.015920  -0.002686
     4  C    0.438562   0.429629   0.003534  -0.001480  -0.001169   0.002892
     5  C    0.002589  -0.008440  -0.056162  -0.061420  -0.071474  -0.066022
     6  C   -0.000584   0.002393   0.428555   0.443190   0.432083   0.002083
     7  C    0.000784   0.004126  -0.000761  -0.003314   0.011104   0.425251
     8  C    0.000111   0.000213   0.000043  -0.000119  -0.000062   0.000114
     9  C   -0.000122  -0.000020   0.000049   0.000734  -0.000593   0.000237
    10  N   -0.002884   0.001517   0.002046  -0.004497  -0.006932   0.012514
    11  O    0.000063  -0.000023   0.001328   0.003521  -0.000565  -0.001203
    12  H    0.000678   0.000023  -0.000001   0.000018  -0.000110  -0.000003
    13  H    0.500299  -0.028385   0.000002   0.000000  -0.000006  -0.000132
    14  H   -0.028385   0.536611  -0.000164  -0.000056  -0.000004   0.001000
    15  H    0.000002  -0.000164   0.538008  -0.027647  -0.024859   0.001118
    16  H    0.000000  -0.000056  -0.027647   0.496533  -0.016097  -0.000549
    17  H   -0.000006  -0.000004  -0.024859  -0.016097   0.535707  -0.000036
    18  H   -0.000132   0.001000   0.001118  -0.000549  -0.000036   0.553580
    19  H   -0.000149   0.000206  -0.000071   0.000002  -0.000344  -0.023305
    20  H    0.000001  -0.000111  -0.000274   0.003553   0.000106  -0.027888
    21  H   -0.000001  -0.000001   0.000000   0.000000  -0.000000  -0.000000
    22  H   -0.000000  -0.000000   0.000000  -0.000003  -0.000005   0.000000
    23  H   -0.000001   0.000000  -0.000000   0.000000  -0.000001  -0.000000
    24  H    0.000001  -0.000001   0.000006  -0.000061  -0.001131  -0.000001
    25  H   -0.000001   0.000000  -0.000003  -0.000002  -0.000021  -0.000000
    26  H    0.000000  -0.000000  -0.000003  -0.000057  -0.000132   0.000000
    27  H   -0.018649  -0.024825   0.000001   0.000017   0.000057   0.000002
              19         20         21         22         23         24
     1  C    0.007768   0.002727  -0.064423  -0.041154  -0.073121  -0.070147
     2  C   -0.004002  -0.002854  -0.013171   0.006789   0.020911   0.002342
     3  C   -0.001516   0.004092  -0.001071  -0.001413   0.002381   0.005437
     4  C    0.000622  -0.001061  -0.000509   0.000046   0.000069  -0.000593
     5  C   -0.070926  -0.050823   0.006927   0.001163  -0.003449  -0.003310
     6  C    0.010815  -0.005167  -0.000189   0.000349   0.000277  -0.000960
     7  C    0.433888   0.433444  -0.000743  -0.000448   0.000096   0.000062
     8  C   -0.000480  -0.000392   0.433106   0.431141   0.424219   0.011033
     9  C   -0.000268   0.000328   0.010804  -0.003018  -0.000530   0.430746
    10  N    0.001938  -0.002906   0.009009  -0.015068   0.003738  -0.000386
    11  O    0.001444   0.007148   0.000605   0.007755  -0.001083   0.000242
    12  H   -0.000020   0.000008   0.000013  -0.000036   0.000340   0.000178
    13  H   -0.000149   0.000001  -0.000001  -0.000000  -0.000001   0.000001
    14  H    0.000206  -0.000111  -0.000001  -0.000000   0.000000  -0.000001
    15  H   -0.000071  -0.000274   0.000000   0.000000  -0.000000   0.000006
    16  H    0.000002   0.003553   0.000000  -0.000003   0.000000  -0.000061
    17  H   -0.000344   0.000106  -0.000000  -0.000005  -0.000001  -0.001131
    18  H   -0.023305  -0.027888  -0.000000   0.000000  -0.000000  -0.000001
    19  H    0.519851  -0.018887   0.000024  -0.000015   0.000002   0.000000
    20  H   -0.018887   0.505996   0.000001  -0.000002   0.000000  -0.000004
    21  H    0.000024   0.000001   0.524472  -0.020371  -0.025266  -0.000330
    22  H   -0.000015  -0.000002  -0.020371   0.502303  -0.027032  -0.000045
    23  H    0.000002   0.000000  -0.025266  -0.027032   0.545427   0.000151
    24  H    0.000000  -0.000004  -0.000330  -0.000045   0.000151   0.544206
    25  H    0.000000   0.000000  -0.000050  -0.000294   0.001497  -0.025374
    26  H    0.000000  -0.000003  -0.000078   0.002544  -0.000460  -0.018964
    27  H    0.000010  -0.000001   0.000001   0.000000   0.000000   0.000008
              25         26         27
     1  C   -0.065566  -0.046036   0.000857
     2  C    0.015680   0.003089   0.002251
     3  C    0.003365  -0.001078  -0.045300
     4  C   -0.000059   0.000079   0.409611
     5  C   -0.001747   0.003790   0.002046
     6  C    0.000137   0.000905   0.002049
     7  C    0.000047  -0.000123  -0.000720
     8  C   -0.002327  -0.002987  -0.000123
     9  C    0.428067   0.439746   0.000354
    10  N   -0.001724  -0.009484  -0.001256
    11  O    0.001897   0.002433   0.000066
    12  H    0.000895  -0.000032   0.000660
    13  H   -0.000001   0.000000  -0.018649
    14  H    0.000000  -0.000000  -0.024825
    15  H   -0.000003  -0.000003   0.000001
    16  H   -0.000002  -0.000057   0.000017
    17  H   -0.000021  -0.000132   0.000057
    18  H   -0.000000   0.000000   0.000002
    19  H    0.000000   0.000000   0.000010
    20  H    0.000000  -0.000003  -0.000001
    21  H   -0.000050  -0.000078   0.000001
    22  H   -0.000294   0.002544   0.000000
    23  H    0.001497  -0.000460   0.000000
    24  H   -0.025374  -0.018964   0.000008
    25  H    0.540301  -0.026960   0.000001
    26  H   -0.026960   0.486394  -0.000001
    27  H    0.000001  -0.000001   0.541316
          Atomic-Atomic Spin Densities.
               1          2          3          4          5          6
     1  C    0.002408  -0.001521  -0.003342   0.000024   0.006326  -0.000486
     2  C   -0.001521   0.004647   0.003032   0.000037  -0.003524   0.001110
     3  C   -0.003342   0.003032   0.000943  -0.000516   0.000252   0.002761
     4  C    0.000024   0.000037  -0.000516   0.001636  -0.001108  -0.000988
     5  C    0.006326  -0.003524   0.000252  -0.001108   0.008981  -0.008654
     6  C   -0.000486   0.001110   0.002761  -0.000988  -0.008654   0.026121
     7  C   -0.000471   0.000110  -0.002211   0.001297   0.008138  -0.005675
     8  C    0.009721  -0.004793  -0.001021   0.000151  -0.000085  -0.000421
     9  C   -0.009114   0.005987   0.001158  -0.000221  -0.000882   0.001223
    10  N   -0.006820  -0.003573  -0.000638   0.000814  -0.013386  -0.008938
    11  O    0.000485   0.001691   0.000735  -0.000176  -0.001237   0.010960
    12  H    0.000160  -0.000163  -0.000233   0.000154  -0.000325  -0.000091
    13  H    0.000070  -0.000422   0.000094  -0.000556   0.000425   0.000052
    14  H   -0.000026   0.000111  -0.000044  -0.000006   0.000051  -0.000001
    15  H   -0.000207   0.000237   0.000441   0.000026   0.001008   0.000321
    16  H    0.000150  -0.000031  -0.000073  -0.000011  -0.000308  -0.000373
    17  H   -0.000053  -0.000150  -0.000131   0.000029   0.000676  -0.001932
    18  H    0.000302  -0.000167   0.000320  -0.000311  -0.000655   0.000716
    19  H    0.000070  -0.000079  -0.000136  -0.000014  -0.000548   0.000178
    20  H   -0.000047   0.000023  -0.000056   0.000006   0.000324   0.000134
    21  H   -0.000157   0.000189  -0.000078   0.000005   0.000010   0.000011
    22  H    0.000457  -0.000047   0.000007   0.000000  -0.000014   0.000008
    23  H   -0.001054   0.000957   0.000175  -0.000006   0.000204   0.000011
    24  H    0.000744  -0.000609  -0.000052   0.000011  -0.000056  -0.000321
    25  H    0.001948  -0.000296   0.000070  -0.000001  -0.000224   0.000058
    26  H   -0.000144   0.000148   0.000002  -0.000002   0.000123  -0.000023
    27  H   -0.000022   0.000009   0.000055   0.000093  -0.000039  -0.000002
               7          8          9         10         11         12
     1  C   -0.000471   0.009721  -0.009114  -0.006820   0.000485   0.000160
     2  C    0.000110  -0.004793   0.005987  -0.003573   0.001691  -0.000163
     3  C   -0.002211  -0.001021   0.001158  -0.000638   0.000735  -0.000233
     4  C    0.001297   0.000151  -0.000221   0.000814  -0.000176   0.000154
     5  C    0.008138  -0.000085  -0.000882  -0.013386  -0.001237  -0.000325
     6  C   -0.005675  -0.000421   0.001223  -0.008938   0.010960  -0.000091
     7  C    0.017303   0.000866  -0.000472  -0.012747   0.002652   0.000068
     8  C    0.000866   0.021004  -0.007079  -0.009057   0.001923   0.000445
     9  C   -0.000472  -0.007079   0.032175  -0.012359   0.010663  -0.000597
    10  N   -0.012747  -0.009057  -0.012359   0.619039  -0.190904   0.000801
    11  O    0.002652   0.001923   0.010663  -0.190904   0.750043  -0.000121
    12  H    0.000068   0.000445  -0.000597   0.000801  -0.000121   0.000115
    13  H   -0.000162  -0.000033   0.000023  -0.000096   0.000008  -0.000054
    14  H   -0.000072   0.000000   0.000004  -0.000013  -0.000007  -0.000001
    15  H   -0.000169   0.000001   0.000048  -0.000278  -0.000721  -0.000001
    16  H   -0.000041  -0.000004  -0.000028   0.000041   0.001535  -0.000000
    17  H    0.000057   0.000024  -0.000258   0.002142  -0.000162   0.000002
    18  H   -0.001759  -0.000038   0.000005   0.000819  -0.000119  -0.000001
    19  H   -0.001391  -0.000063   0.000024   0.002115  -0.000345  -0.000001
    20  H   -0.000452  -0.000004   0.000012   0.000318  -0.000240   0.000000
    21  H   -0.000043  -0.000793   0.000097   0.000998  -0.000177  -0.000010
    22  H   -0.000008  -0.000504   0.000079   0.000353  -0.000275   0.000001
    23  H   -0.000043  -0.002533   0.001005   0.000131  -0.000103  -0.000086
    24  H    0.000026   0.000170  -0.002203   0.002859  -0.000882   0.000036
    25  H    0.000003  -0.000320   0.000414   0.000155  -0.000763  -0.000023
    26  H   -0.000009  -0.000120  -0.000322  -0.000536   0.001947  -0.000005
    27  H   -0.000003   0.000001   0.000004   0.000006  -0.000001   0.000002
              13         14         15         16         17         18
     1  C    0.000070  -0.000026  -0.000207   0.000150  -0.000053   0.000302
     2  C   -0.000422   0.000111   0.000237  -0.000031  -0.000150  -0.000167
     3  C    0.000094  -0.000044   0.000441  -0.000073  -0.000131   0.000320
     4  C   -0.000556  -0.000006   0.000026  -0.000011   0.000029  -0.000311
     5  C    0.000425   0.000051   0.001008  -0.000308   0.000676  -0.000655
     6  C    0.000052  -0.000001   0.000321  -0.000373  -0.001932   0.000716
     7  C   -0.000162  -0.000072  -0.000169  -0.000041   0.000057  -0.001759
     8  C   -0.000033   0.000000   0.000001  -0.000004   0.000024  -0.000038
     9  C    0.000023   0.000004   0.000048  -0.000028  -0.000258   0.000005
    10  N   -0.000096  -0.000013  -0.000278   0.000041   0.002142   0.000819
    11  O    0.000008  -0.000007  -0.000721   0.001535  -0.000162  -0.000119
    12  H   -0.000054  -0.000001  -0.000001  -0.000000   0.000002  -0.000001
    13  H    0.000915   0.000009   0.000000   0.000000  -0.000001   0.000021
    14  H    0.000009  -0.000076  -0.000013   0.000001   0.000001   0.000036
    15  H    0.000000  -0.000013  -0.002475   0.000244   0.000344   0.000021
    16  H    0.000000   0.000001   0.000244  -0.001191  -0.000284   0.000006
    17  H   -0.000001   0.000001   0.000344  -0.000284  -0.000644  -0.000013
    18  H    0.000021   0.000036   0.000021   0.000006  -0.000013   0.000068
    19  H    0.000004  -0.000001  -0.000000   0.000006  -0.000001   0.000308
    20  H    0.000000  -0.000000  -0.000006   0.000024   0.000003   0.000223
    21  H    0.000000   0.000000   0.000000   0.000000  -0.000000   0.000000
    22  H    0.000000   0.000000   0.000000   0.000000   0.000000   0.000000
    23  H    0.000000   0.000000   0.000000   0.000000  -0.000000   0.000000
    24  H   -0.000000  -0.000000   0.000004  -0.000007   0.000023  -0.000000
    25  H   -0.000000  -0.000000  -0.000001   0.000000   0.000005   0.000000
    26  H    0.000000   0.000000   0.000000   0.000000  -0.000011   0.000000
    27  H   -0.000020   0.000011  -0.000001   0.000000   0.000001   0.000004
              19         20         21         22         23         24
     1  C    0.000070  -0.000047  -0.000157   0.000457  -0.001054   0.000744
     2  C   -0.000079   0.000023   0.000189  -0.000047   0.000957  -0.000609
     3  C   -0.000136  -0.000056  -0.000078   0.000007   0.000175  -0.000052
     4  C   -0.000014   0.000006   0.000005   0.000000  -0.000006   0.000011
     5  C   -0.000548   0.000324   0.000010  -0.000014   0.000204  -0.000056
     6  C    0.000178   0.000134   0.000011   0.000008   0.000011  -0.000321
     7  C   -0.001391  -0.000452  -0.000043  -0.000008  -0.000043   0.000026
     8  C   -0.000063  -0.000004  -0.000793  -0.000504  -0.002533   0.000170
     9  C    0.000024   0.000012   0.000097   0.000079   0.001005  -0.002203
    10  N    0.002115   0.000318   0.000998   0.000353   0.000131   0.002859
    11  O   -0.000345  -0.000240  -0.000177  -0.000275  -0.000103  -0.000882
    12  H   -0.000001   0.000000  -0.000010   0.000001  -0.000086   0.000036
    13  H    0.000004   0.000000   0.000000   0.000000   0.000000  -0.000000
    14  H   -0.000001  -0.000000   0.000000   0.000000   0.000000  -0.000000
    15  H   -0.000000  -0.000006   0.000000   0.000000   0.000000   0.000004
    16  H    0.000006   0.000024   0.000000   0.000000   0.000000  -0.000007
    17  H   -0.000001   0.000003  -0.000000   0.000000  -0.000000   0.000023
    18  H    0.000308   0.000223   0.000000   0.000000   0.000000  -0.000000
    19  H   -0.000257   0.000076   0.000001   0.000000   0.000000  -0.000000
    20  H    0.000076  -0.000499   0.000000  -0.000000   0.000000   0.000000
    21  H    0.000001   0.000000  -0.000550   0.000011   0.000192  -0.000001
    22  H    0.000000  -0.000000   0.000011  -0.000719   0.000210   0.000002
    23  H    0.000000   0.000000   0.000192   0.000210   0.001119  -0.000026
    24  H   -0.000000   0.000000  -0.000001   0.000002  -0.000026  -0.000057
    25  H   -0.000000  -0.000000   0.000003   0.000006   0.000027   0.000310
    26  H    0.000000   0.000000   0.000005   0.000019   0.000022  -0.000370
    27  H   -0.000000  -0.000000  -0.000000  -0.000000   0.000000   0.000000
              25         26         27
     1  C    0.001948  -0.000144  -0.000022
     2  C   -0.000296   0.000148   0.000009
     3  C    0.000070   0.000002   0.000055
     4  C   -0.000001  -0.000002   0.000093
     5  C   -0.000224   0.000123  -0.000039
     6  C    0.000058  -0.000023  -0.000002
     7  C    0.000003  -0.000009  -0.000003
     8  C   -0.000320  -0.000120   0.000001
     9  C    0.000414  -0.000322   0.000004
    10  N    0.000155  -0.000536   0.000006
    11  O   -0.000763   0.001947  -0.000001
    12  H   -0.000023  -0.000005   0.000002
    13  H   -0.000000   0.000000  -0.000020
    14  H   -0.000000   0.000000   0.000011
    15  H   -0.000001   0.000000  -0.000001
    16  H    0.000000   0.000000   0.000000
    17  H    0.000005  -0.000011   0.000001
    18  H    0.000000   0.000000   0.000004
    19  H   -0.000000   0.000000  -0.000000
    20  H   -0.000000   0.000000  -0.000000
    21  H    0.000003   0.000005  -0.000000
    22  H    0.000006   0.000019  -0.000000
    23  H    0.000027   0.000022   0.000000
    24  H    0.000310  -0.000370   0.000000
    25  H   -0.002933   0.000257  -0.000000
    26  H    0.000257  -0.001469   0.000000
    27  H   -0.000000   0.000000  -0.000125
 Mulliken charges and spin densities:
               1          2
     1  C    0.268232  -0.000600
     2  C   -0.244329   0.002909
     3  C   -0.012837   0.001514
     4  C   -0.400337   0.000367
     5  C    0.285633  -0.004528
     6  C   -0.363277   0.015760
     7  C   -0.400789   0.004792
     8  C   -0.391930   0.007438
     9  C   -0.377194   0.019386
    10  N   -0.205687   0.371245
    11  O   -0.442730   0.586408
    12  H    0.152133   0.000072
    13  H    0.163221   0.000277
    14  H    0.140778  -0.000038
    15  H    0.132946  -0.001177
    16  H    0.159568  -0.000345
    17  H    0.128384  -0.000332
    18  H    0.123824  -0.000215
    19  H    0.143415  -0.000055
    20  H    0.152969  -0.000162
    21  H    0.141244  -0.000287
    22  H    0.156812  -0.000414
    23  H    0.131833   0.000204
    24  H    0.126896  -0.000401
    25  H    0.132239  -0.001303
    26  H    0.167415  -0.000487
    27  H    0.131569  -0.000028
 Sum of Mulliken charges =  -0.00000   1.00000
 Mulliken charges and spin densities with hydrogens summed into heavy atoms:
               1          2
     1  C    0.268232  -0.000600
     2  C   -0.092195   0.002981
     3  C   -0.012837   0.001514
     4  C    0.035230   0.000579
     5  C    0.285633  -0.004528
     6  C    0.057622   0.013905
     7  C    0.019419   0.004360
     8  C    0.037959   0.006941
     9  C    0.049355   0.017195
    10  N   -0.205687   0.371245
    11  O   -0.442730   0.586408
 Electronic spatial extent (au):  <R**2>=           1667.4725
 Charge=             -0.0000 electrons
 Dipole moment (field-independent basis, Debye):
    X=              1.8016    Y=              3.0293    Z=              0.8795  Tot=              3.6326
 Quadrupole moment (field-independent basis, Debye-Ang):
   XX=            -62.5198   YY=            -71.8124   ZZ=            -66.7515
   XY=             -3.9835   XZ=             -0.5679   YZ=             -0.1113
 Traceless Quadrupole moment (field-independent basis, Debye-Ang):
   XX=              4.5081   YY=             -4.7845   ZZ=              0.2764
   XY=             -3.9835   XZ=             -0.5679   YZ=             -0.1113
 Octapole moment (field-independent basis, Debye-Ang**2):
  XXX=             -1.2205  YYY=              9.5401  ZZZ=              0.7051  XYY=              8.8188
  XXY=              3.9531  XXZ=              0.2181  XZZ=             -0.5042  YZZ=             -2.7478
  YYZ=              3.8766  XYZ=              0.5186
 Hexadecapole moment (field-independent basis, Debye-Ang**3):
 XXXX=          -1111.7827 YYYY=           -691.4898 ZZZZ=           -380.9167 XXXY=             -1.4254
 XXXZ=             -0.9510 YYYX=            -11.9159 YYYZ=              1.9931 ZZZX=              0.3365
 ZZZY=             -0.6960 XXYY=           -300.0652 XXZZ=           -249.5840 YYZZ=           -176.1248
 XXYZ=              0.6239 YYXZ=             -3.1681 ZZXY=              0.6119
 N-N= 6.880983409938D+02 E-N=-2.498681104506D+03  KE= 4.823688490602D+02
                          Isotropic Fermi Contact Couplings
        Atom                 a.u.       MegaHertz       Gauss      10(-4) cm-1
     1  C(13)              0.00339       3.80816       1.35885       1.27026
     2  C(13)             -0.00010      -0.11141      -0.03976      -0.03716
     3  C(13)              0.00140       1.57571       0.56225       0.52560
     4  C(13)              0.00003       0.03878       0.01384       0.01294
     5  C(13)              0.00631       7.09044       2.53004       2.36512
     6  C(13)              0.00036       0.40672       0.14513       0.13567
     7  C(13)              0.00528       5.93711       2.11851       1.98041
     8  C(13)              0.00730       8.21167       2.93013       2.73912
     9  C(13)              0.00140       1.57606       0.56238       0.52572
    10  N(14)              0.16829      54.37564      19.40258      18.13776
    11  O(17)              0.08376     -50.77786     -18.11880     -16.93767
    12  H(1)               0.00018       0.78728       0.28092       0.26261
    13  H(1)               0.00015       0.67655       0.24141       0.22567
    14  H(1)              -0.00002      -0.10503      -0.03748      -0.03503
    15  H(1)              -0.00025      -1.11368      -0.39739      -0.37148
    16  H(1)              -0.00028      -1.24528      -0.44435      -0.41538
    17  H(1)              -0.00032      -1.44041      -0.51397      -0.48047
    18  H(1)              -0.00025      -1.13253      -0.40411      -0.37777
    19  H(1)              -0.00011      -0.49674      -0.17725      -0.16569
    20  H(1)              -0.00012      -0.51569      -0.18401      -0.17201
    21  H(1)              -0.00015      -0.68807      -0.24552      -0.22951
    22  H(1)              -0.00024      -1.05249      -0.37556      -0.35107
    23  H(1)              -0.00016      -0.69462      -0.24786      -0.23170
    24  H(1)              -0.00028      -1.23372      -0.44022      -0.41152
    25  H(1)              -0.00022      -1.00377      -0.35817      -0.33482
    26  H(1)              -0.00040      -1.77172      -0.63219      -0.59098
    27  H(1)               0.00000       0.01144       0.00408       0.00382
 --------------------------------------------------------
       Center         ----  Spin Dipole Couplings  ----
                      3XX-RR        3YY-RR        3ZZ-RR
 --------------------------------------------------------
     1   Atom       -0.010227      0.017419     -0.007192
     2   Atom       -0.007084      0.013748     -0.006664
     3   Atom       -0.000298      0.004531     -0.004234
     4   Atom        0.000575      0.001380     -0.001955
     5   Atom        0.025738     -0.016125     -0.009613
     6   Atom       -0.000963     -0.006457      0.007419
     7   Atom        0.011559     -0.006094     -0.005465
     8   Atom        0.007372     -0.002880     -0.004491
     9   Atom       -0.003323     -0.007375      0.010698
    10   Atom       -0.469746     -0.475961      0.945707
    11   Atom       -1.167495     -1.164457      2.331952
    12   Atom       -0.002824      0.004620     -0.001796
    13   Atom        0.000056      0.001270     -0.001326
    14   Atom        0.001518      0.000035     -0.001553
    15   Atom        0.004055     -0.002948     -0.001107
    16   Atom        0.007078     -0.004284     -0.002793
    17   Atom        0.000432     -0.005321      0.004889
    18   Atom        0.005574     -0.002774     -0.002799
    19   Atom        0.005175     -0.005784      0.000610
    20   Atom        0.007194     -0.003193     -0.004001
    21   Atom       -0.002377      0.002515     -0.000137
    22   Atom        0.005530     -0.001475     -0.004055
    23   Atom        0.000893      0.002017     -0.002910
    24   Atom       -0.003975     -0.001323      0.005299
    25   Atom       -0.000803      0.001848     -0.001044
    26   Atom        0.003652     -0.001396     -0.002255
    27   Atom        0.000374      0.000446     -0.000820
 --------------------------------------------------------
                        XY            XZ            YZ
 --------------------------------------------------------
     1   Atom       -0.021154     -0.009898      0.021572
     2   Atom        0.003237     -0.000789      0.001084
     3   Atom        0.008974      0.001107     -0.000270
     4   Atom        0.003144      0.000233      0.000099
     5   Atom        0.011472      0.018426      0.005295
     6   Atom       -0.001703      0.013105     -0.010779
     7   Atom       -0.004270     -0.008848      0.002655
     8   Atom       -0.010148      0.010625     -0.005129
     9   Atom       -0.001322     -0.019859     -0.000705
    10   Atom       -0.002227      0.034315      0.039796
    11   Atom        0.017478      0.258768      0.453127
    12   Atom        0.000668     -0.000291      0.002299
    13   Atom        0.001727      0.000131      0.000021
    14   Atom        0.002161      0.000045      0.000033
    15   Atom        0.001685      0.004106     -0.000566
    16   Atom       -0.002467      0.008044     -0.001779
    17   Atom        0.001819      0.007493      0.001864
    18   Atom        0.001067     -0.001623     -0.000165
    19   Atom        0.001794     -0.007422     -0.001465
    20   Atom       -0.003112     -0.004618      0.000931
    21   Atom       -0.004976      0.003003     -0.005794
    22   Atom       -0.005301      0.004920     -0.002634
    23   Atom       -0.004706      0.000738     -0.000601
    24   Atom       -0.002519     -0.003234      0.006032
    25   Atom       -0.004077     -0.003723      0.002323
    26   Atom       -0.005613     -0.008457      0.004889
    27   Atom        0.001681      0.000860      0.000813
 --------------------------------------------------------


 ---------------------------------------------------------------------------------
              Anisotropic Spin Dipole Couplings in Principal Axis System
 ---------------------------------------------------------------------------------

       Atom             a.u.   MegaHertz   Gauss  10(-4) cm-1        Axes

              Baa    -0.0223    -2.988    -1.066    -0.997  0.7339  0.5818 -0.3506
     1 C(13)  Bbb    -0.0183    -2.461    -0.878    -0.821  0.5366 -0.1799  0.8245
              Bcc     0.0406     5.449     1.944     1.818 -0.4166  0.7932  0.4442
 
              Baa    -0.0082    -1.097    -0.392    -0.366  0.8292 -0.1491  0.5387
     2 C(13)  Bbb    -0.0061    -0.819    -0.292    -0.273 -0.5390  0.0419  0.8412
              Bcc     0.0143     1.917     0.684     0.639  0.1480  0.9879  0.0456
 
              Baa    -0.0075    -1.008    -0.360    -0.336  0.7605 -0.5736 -0.3044
     3 C(13)  Bbb    -0.0039    -0.525    -0.187    -0.175  0.2243 -0.2079  0.9521
              Bcc     0.0114     1.533     0.547     0.511  0.6094  0.7923  0.0295
 
              Baa    -0.0022    -0.300    -0.107    -0.100  0.7058 -0.6035 -0.3708
     4 C(13)  Bbb    -0.0019    -0.258    -0.092    -0.086  0.2555 -0.2714  0.9280
              Bcc     0.0042     0.558     0.199     0.186  0.6607  0.7497  0.0373
 
              Baa    -0.0192    -2.580    -0.920    -0.860 -0.1304  0.9526 -0.2748
     5 C(13)  Bbb    -0.0174    -2.334    -0.833    -0.779 -0.4288  0.1957  0.8819
              Bcc     0.0366     4.914     1.753     1.639  0.8939  0.2329  0.3830
 
              Baa    -0.0150    -2.010    -0.717    -0.671 -0.4733  0.6530  0.5912
     6 C(13)  Bbb    -0.0056    -0.752    -0.268    -0.251  0.7201  0.6734 -0.1673
              Bcc     0.0206     2.762     0.985     0.921  0.5074 -0.3465  0.7890
 
              Baa    -0.0095    -1.272    -0.454    -0.424  0.3155 -0.3063  0.8981
     7 C(13)  Bbb    -0.0069    -0.932    -0.332    -0.311  0.3127  0.9272  0.2064
              Bcc     0.0164     2.204     0.786     0.735  0.8959 -0.2157 -0.3883
 
              Baa    -0.0109    -1.464    -0.523    -0.488 -0.5858 -0.2473  0.7718
     8 C(13)  Bbb    -0.0085    -1.138    -0.406    -0.380  0.2414  0.8559  0.4574
              Bcc     0.0194     2.603     0.929     0.868  0.7737 -0.4542  0.4417
 
              Baa    -0.0176    -2.360    -0.842    -0.787  0.8082  0.1440  0.5710
     9 C(13)  Bbb    -0.0072    -0.961    -0.343    -0.320 -0.1142  0.9896 -0.0879
              Bcc     0.0247     3.321     1.185     1.108 -0.5777  0.0059  0.8162
 
              Baa    -0.4784   -18.450    -6.583    -6.154  0.3778  0.9252 -0.0350
    10 N(14)  Bbb    -0.4693   -18.099    -6.458    -6.037  0.9256 -0.3784 -0.0118
              Bcc     0.9476    36.549    13.041    12.191  0.0241  0.0279  0.9993
 
              Baa    -1.2279    88.849    31.703    29.637  0.3449  0.9276 -0.1432
    11 O(17)  Bbb    -1.1806    85.426    30.482    28.495  0.9358 -0.3516 -0.0236
              Bcc     2.4085  -174.275   -62.186   -58.132  0.0722  0.1258  0.9894
 
              Baa    -0.0032    -1.710    -0.610    -0.570  0.8110 -0.2276  0.5390
    12 H(1)   Bbb    -0.0022    -1.169    -0.417    -0.390 -0.5813 -0.2085  0.7865
              Bcc     0.0054     2.879     1.027     0.960  0.0666  0.9512  0.3014
 
              Baa    -0.0014    -0.732    -0.261    -0.244 -0.3555  0.2250  0.9072
    13 H(1)   Bbb    -0.0011    -0.599    -0.214    -0.200  0.7342 -0.5334  0.4200
              Bcc     0.0025     1.331     0.475     0.444  0.5784  0.8154  0.0244
 
              Baa    -0.0016    -0.829    -0.296    -0.276  0.0013 -0.0228  0.9997
    14 H(1)   Bbb    -0.0015    -0.805    -0.287    -0.269 -0.5812  0.8135  0.0193
              Bcc     0.0031     1.634     0.583     0.545  0.8138  0.5811  0.0122
 
              Baa    -0.0045    -2.426    -0.865    -0.809 -0.4239  0.6645  0.6154
    15 H(1)   Bbb    -0.0019    -1.031    -0.368    -0.344  0.2295  0.7361 -0.6368
              Bcc     0.0065     3.457     1.234     1.153  0.8761  0.1287  0.4646
 
              Baa    -0.0073    -3.917    -1.398    -1.307 -0.4652  0.1339  0.8750
    16 H(1)   Bbb    -0.0048    -2.558    -0.913    -0.853  0.2231  0.9743 -0.0305
              Bcc     0.0121     6.475     2.310     2.160  0.8566 -0.1810  0.4831
 
              Baa    -0.0059    -3.142    -1.121    -1.048 -0.4215  0.8962  0.1381
    17 H(1)   Bbb    -0.0050    -2.668    -0.952    -0.890  0.6859  0.4147 -0.5979
              Bcc     0.0109     5.810     2.073     1.938  0.5931  0.1573  0.7896
 
              Baa    -0.0031    -1.658    -0.592    -0.553  0.2006 -0.1631  0.9660
    18 H(1)   Bbb    -0.0029    -1.548    -0.552    -0.516 -0.0881  0.9791  0.1836
              Bcc     0.0060     3.206     1.144     1.070  0.9757  0.1219 -0.1820
 
              Baa    -0.0061    -3.262    -1.164    -1.088 -0.0562  0.9866  0.1530
    19 H(1)   Bbb    -0.0049    -2.595    -0.926    -0.865  0.6024 -0.0887  0.7932
              Bcc     0.0110     5.857     2.090     1.954  0.7962  0.1367 -0.5894
 
              Baa    -0.0057    -3.029    -1.081    -1.011  0.3573  0.0997  0.9287
    20 H(1)   Bbb    -0.0040    -2.130    -0.760    -0.711  0.1947  0.9645 -0.1784
              Bcc     0.0097     5.160     1.841     1.721  0.9135 -0.2446 -0.3252
 
              Baa    -0.0056    -3.003    -1.072    -1.002  0.7167  0.6381  0.2813
    21 H(1)   Bbb    -0.0042    -2.255    -0.805    -0.752 -0.5512  0.2713  0.7890
              Bcc     0.0099     5.259     1.876     1.754 -0.4272  0.7206 -0.5461
 
              Baa    -0.0062    -3.304    -1.179    -1.102 -0.3175  0.1647  0.9339
    22 H(1)   Bbb    -0.0043    -2.308    -0.824    -0.770  0.4718  0.8817  0.0049
              Bcc     0.0105     5.612     2.002     1.872  0.8226 -0.4421  0.3576
 
              Baa    -0.0034    -1.788    -0.638    -0.596  0.7105  0.5778 -0.4016
    23 H(1)   Bbb    -0.0029    -1.568    -0.560    -0.523  0.2397  0.3379  0.9101
              Bcc     0.0063     3.356     1.198     1.120 -0.6616  0.7429 -0.1016
 
              Baa    -0.0055    -2.956    -1.055    -0.986  0.7615  0.6357 -0.1265
    24 H(1)   Bbb    -0.0045    -2.405    -0.858    -0.802 -0.5851  0.5903 -0.5560
              Bcc     0.0100     5.362     1.913     1.788 -0.2788  0.4975  0.8215
 
              Baa    -0.0050    -2.655    -0.947    -0.886  0.7735  0.2664  0.5751
    25 H(1)   Bbb    -0.0020    -1.052    -0.375    -0.351  0.2631  0.6906 -0.6737
              Bcc     0.0069     3.707     1.323     1.236 -0.5766  0.6724  0.4641
 
              Baa    -0.0084    -4.480    -1.599    -1.494  0.5066 -0.1823  0.8427
    26 H(1)   Bbb    -0.0050    -2.657    -0.948    -0.886  0.4747  0.8749 -0.0962
              Bcc     0.0134     7.137     2.547     2.381  0.7197 -0.4488 -0.5297
 
              Baa    -0.0013    -0.695    -0.248    -0.232  0.7176 -0.4387 -0.5410
    27 H(1)   Bbb    -0.0012    -0.645    -0.230    -0.215  0.2160 -0.5982  0.7717
              Bcc     0.0025     1.340     0.478     0.447  0.6622  0.6706  0.3345
 

 ---------------------------------------------------------------------------------

 No NMR shielding tensors so no spin-rotation constants.
 Leave Link  601 at Sun Jun 23 21:42:01 2019, MaxMem=  8053063680 cpu:               0.0 elap:               0.3
 (Enter /data2/g16/g16/l9999.exe)
 1\1\GINC-CU10\SP\UPBE1PBE\Gen\C9H16N1O1(2)\ROOT\23-Jun-2019\0\\#p gen 
 6d pbe1pbe\\start preoptimized\\0,2\C,0,-11.73,58.611,0.665\C,0,-10.7,
 59.448,1.374\C,0,-10.946,60.75,1.327\C,0,-10.094,61.789,1.991\C,0,-12.
 175,61.089,0.515\C,0,-11.843,61.67,-0.856\C,0,-13.171,61.971,1.264\C,0
 ,-12.316,57.519,1.554\C,0,-11.215,58.024,-0.647\N,0,-12.768,59.664,0.4
 06\O,0,-13.585,59.485,-0.776\H,0,-9.825,59.142,1.45\H,0,-9.757,61.437,
 2.794\H,0,-10.623,62.539,2.187\H,0,-11.37,62.474,-0.748\H,0,-12.638,61
 .835,-1.327\H,0,-11.316,61.059,-1.336\H,0,-12.761,62.784,1.494\H,0,-13
 .453,61.531,2.044\H,0,-13.914,62.14,0.715\H,0,-12.534,57.881,2.392\H,0
 ,-13.09,57.17,1.153\H,0,-11.685,56.833,1.664\H,0,-10.829,58.706,-1.165
 \H,0,-10.57,57.367,-0.464\H,0,-11.929,57.638,-1.119\H,0,-9.27280321,62
 .09576891,1.37746217\\Version=AM64L-G16RevB.01\State=2-A\HF=-481.61835
 5\S2=0.755995\S2-1=0.\S2A=0.750017\RMSD=6.941e-09\Dipole=1.2139068,0.4
 579692,0.5993867\Quadrupole=-2.6159912,4.2144682,-1.598477,-1.3658883,
 -2.3133133,-0.3520969\PG=C01 [X(C9H16N1O1)]\\@


 DEMOCRATS BUY MOST OF THE BOOKS THAT HAVE BEEN
 BANNED; REPUBLICANS FORM CENSORSHIP COMMITTEES AND
 READ THEM AS A GROUP.
 Elapsed time:       0 days  0 hours  1 minutes  2.3 seconds.
 File lengths (MBytes):  RWF=     95 Int=      0 D2E=      0 Chk=      8 Scr=      1
 Normal termination of Gaussian 16 at Sun Jun 23 21:42:02 2019.
