 Entering Gaussian System, Link 0=g16
 AtFile(1): /home/malgo/Basis_sets/n07d_pbe0.gbs
            -H 0
             6-31G
             S   1 1.00       0.000000000000
                  0.4000000000D+00  0.10000000D+01
             P   1 1.00       0.000000000000
                  0.7500000000D+00  0.10000000D+01
             ****
             -He 0
             6-31+G**
             ****
             -Li 0
             6-31+G**
             ****
             -Be 0
             6-31+G**
             ****
             -B 0
             6-31G
             S   1 1.00       0.000000000000
                  0.7000000000D+01  0.1000000000D+01
             P   1 1.00       0.000000000000
                  0.3500000000D-01  0.1000000000D+01
             D   1 1.00
                  0.3430000000D+00  0.1000000000D+01
             ****
             -C 0
             6-31G
             S   1 1.00       0.000000000000
                  0.8700000000D+01  0.1000000000D+01
             P   1 1.00       0.000000000000
                  0.5000000000D-01  0.1000000000D+01
             D   1 1.00
                  0.8200000000D+00  0.1000000000D+01
             ****
             -N 0
             6-31G
             S   1 1.00       0.000000000000
                  0.1370000000D+02  0.1000000000D+01
             P   1 1.00       0.000000000000
                  0.5300000000D-01  0.1000000000D+01
             D   1 1.00       0.000000000000
                  0.1015000000D+01  0.1000000000D+01
             ****
             -O 0
             6-31G
             S   1 1.00
                  0.1600000000D+02  0.1000000000D+01
             P   1 1.00       0.000000000000
                  0.6500000000D-01  0.1000000000D+01
             D   1 1.00        0.000000000000
                  0.1190000000D+01  0.1000000000D+01
             D   1 1.00        0.000000000000
                  0.1800000000D+00  0.1000000000D+01
             ****
             -F 0
             6-31G
             S   1 1.00
                  0.1770000000D+02  0.1000000000D+01
             P   1 1.00       0.000000000000
                  0.8300000000D-01  0.1000000000D+01
             D   1 1.00       0.000000000000
                  1.3700000000D+00  0.1000000000D+01
             D   1 1.00       0.000000000000
                  0.2300000000D+00  0.1000000000D+01
             ****
             -Ne 0
             6-31+G**
             ****
             -Na 0
             6-31+G**
             ****
             -Mg 0
             6-31+G**
             ****
             -Al 0
             6-31G
             S   1 1.00      0.000000000000
                  0.3100000000D+01  0.1000000000D+01
             P   1 1.00      0.000000000000
                  0.1500000000D-01  0.1000000000D+01
             D   1 1.00      0.000000000000
                  0.1890000000D+00  0.1000000000D+01
             ****
             -Si 0
             6-31G
             S   1 1.00      0.000000000000
                  0.5000000000D+01  0.1000000000D+01
             P   1 1.00       0.000000000000
                  0.3300000000D-01  0.1000000000D+01
             D   1 1.0        0.000000000000
                  0.2750000000D+00  0.1000000000D+01
             ****
             -P  0
             6-31G
             S   1 1.00       0.000000000000
                  0.6300000000D+01  0.1000000000D+01
             P   1 1.00       0.000000000000
                  0.3500000000D-01  0.1000000000D+01
             D   1 1.00       0.000000000000
                  0.3730000000D+00  0.1000000000D+01
             ****
             -S  0
             6-31G
             S   1  1.00      0.000000000000
                  0.7500000000D+01  0.1000000000D+01
             P   1 1.00       0.000000000000
                  0.4100000000D-01  0.1000000000D+01
             D   1 1.00       0.000000000000
                  0.4790000000D+00  0.1000000000D+01
             ****
            -Cl 0
             6-31G
             S   1 1.00       0.000000000000
                  0.8500000000D+01  0.1000000000D+01
             P   1 1.00       0.000000000000
                  0.4800000000D-01  0.1000000000D+01
             D   1 1.00       0.000000000000
                  0.6000000000D+00  0.1000000000D+01
             D   1 1.00       0.000000000000
                  0.1960000000D+00  0.1000000000D+01
             ****
            -Br 0
             S   3 1.00       0.000000000000
                  0.4721881000D+01  0.1749732514D+00
                  0.2257555000D+01 -0.7074172290D+00
                  0.3896080000D+00  0.1258999543D+01
             S   1 1.00       0.000000000000
                  0.1471340000D+00  0.1000000000D+01
             P   3 1.00       0.000000000000
                  0.1896942000D+01 -0.2464576731D+00
                  0.9108990000D+00  0.3623179892D+00
                  0.3168550000D+00  0.8338469725D+00
             P   1 1.00       0.000000000000
                  0.1095030000D+00  0.1000000000D+01
             P   1 1.00       0.000000000000
                  0.3609700000D-01  0.1000000000D+01
             D   1 1.00
                  0.4750000000D+00  0.1000000000D+01
             D   1 1.00
                  0.1280000000D+00  0.1000000000D+01
             ****
            -I   0
             S   3 1.00       0.000000000000
                  0.2122765000D+01  0.2063429899D+01
                  0.1770481000D+01 -0.2869526473D+01
                  0.3130840000D+00  0.1404747074D+01
             S   1 1.00       0.000000000000
                  0.1320000000D+00  0.1000000000D+01
             P   3 1.00       0.000000000000
                  0.2432887000D+01  0.7732753148D+00
                  0.2137249000D+01 -0.1020833156D+01
                  0.3145460000D+00  0.1095666871D+01
             P   1 1.00       0.000000000000
                  0.1049450000D+00  0.1000000000D+01
             P   1 1.00       0.000000000000
                  0.3264100000D-01  0.1000000000D+01
             D   1 1.00
                  0.300000000          1.00000000
             D   1 1.00
                  0.090000000          1.00000000
             ****
             -Zn 0
             SP   6 1.00       0.000000000000
                  0.6936492000D+02 -0.4440098182D-02 -0.7689261805D-02
                  0.2362082000D+02  0.7505253308D-01 -0.2997981924D-01
                  0.1018471000D+02  0.2533111104D+00  0.7082410821D-01
                  0.4334082000D+01 -0.2881897118D+00  0.4046140897D+00
                  0.1810918000D+01 -0.7267052298D+00  0.4882324876D+00
                  0.7148410000D+00 -0.2133439088D+00  0.1751969956D+00
             SP   3 1.00       0.000000000000
                  0.2823842000D+01  0.4898545031D-01 -0.1586762981D+00
                  0.1039543000D+01  0.2592794075D+00  0.8379326898D-01
                  0.1432640000D+00 -0.1115711463D+01  0.9840546881D+00
             SP   1 1.00       0.000000000000
                  0.4929600000D-01  0.1000000000D+01  0.1000000000D+01
             S    1 1.00       0.000000000000
                  0.1620000000D+00  0.1000000000D+01
             D    3 1.00       0.000000000000
                  0.3370764000D+02  0.9262647815D-01
                  0.9061106000D+01  0.4002979920D+00
                  0.2738383000D+01  0.6896607863D+00
             D    1 1.00
                  0.2440000000D+01  0.1000000000D+01
             D    1 1.00       0.000000000000
                  0.7302940000D+00  0.1000000000D+01
             D    1 1.00       0.000000000000
                  0.1620000000D+00  0.1000000000D+01
            ****
 Initial command:
 /data2/g16/g16/l1.exe "/tmp/Gau-12311.inp" -scrdir="/tmp/"
 Entering Link 1 = /data2/g16/g16/l1.exe PID=     12312.
  
 Copyright (c) 1988-2017, Gaussian, Inc.  All Rights Reserved.
  
 This is part of the Gaussian(R) 16 program.  It is based on
 the Gaussian(R) 09 system (copyright 2009, Gaussian, Inc.),
 the Gaussian(R) 03 system (copyright 2003, Gaussian, Inc.),
 the Gaussian(R) 98 system (copyright 1998, Gaussian, Inc.),
 the Gaussian(R) 94 system (copyright 1995, Gaussian, Inc.),
 the Gaussian 92(TM) system (copyright 1992, Gaussian, Inc.),
 the Gaussian 90(TM) system (copyright 1990, Gaussian, Inc.),
 the Gaussian 88(TM) system (copyright 1988, Gaussian, Inc.),
 the Gaussian 86(TM) system (copyright 1986, Carnegie Mellon
 University), and the Gaussian 82(TM) system (copyright 1983,
 Carnegie Mellon University). Gaussian is a federally registered
 trademark of Gaussian, Inc.
  
 This software contains proprietary and confidential information,
 including trade secrets, belonging to Gaussian, Inc.
  
 This software is provided under written license and may be
 used, copied, transmitted, or stored only in accord with that
 written license.
  
 The following legend is applicable only to US Government
 contracts under FAR:
  
                    RESTRICTED RIGHTS LEGEND
  
 Use, reproduction and disclosure by the US Government is
 subject to restrictions as set forth in subparagraphs (a)
 and (c) of the Commercial Computer Software - Restricted
 Rights clause in FAR 52.227-19.
  
 Gaussian, Inc.
 340 Quinnipiac St., Bldg. 40, Wallingford CT 06492
  
  
 ---------------------------------------------------------------
 Warning -- This program may not be used in any manner that
 competes with the business of Gaussian, Inc. or will provide
 assistance to any competitor of Gaussian, Inc.  The licensee
 of this program is prohibited from giving any competitor of
 Gaussian, Inc. access to this program.  By using this program,
 the user acknowledges that Gaussian, Inc. is engaged in the
 business of creating and licensing software in the field of
 computational chemistry and represents and warrants to the
 licensee that it is not a competitor of Gaussian, Inc. and that
 it will not use this program in any manner prohibited above.
 ---------------------------------------------------------------
  

 Cite this work as:
 Gaussian 16, Revision B.01,
 M. J. Frisch, G. W. Trucks, H. B. Schlegel, G. E. Scuseria, 
 M. A. Robb, J. R. Cheeseman, G. Scalmani, V. Barone, 
 G. A. Petersson, H. Nakatsuji, X. Li, M. Caricato, A. V. Marenich, 
 J. Bloino, B. G. Janesko, R. Gomperts, B. Mennucci, H. P. Hratchian, 
 J. V. Ortiz, A. F. Izmaylov, J. L. Sonnenberg, D. Williams-Young, 
 F. Ding, F. Lipparini, F. Egidi, J. Goings, B. Peng, A. Petrone, 
 T. Henderson, D. Ranasinghe, V. G. Zakrzewski, J. Gao, N. Rega, 
 G. Zheng, W. Liang, M. Hada, M. Ehara, K. Toyota, R. Fukuda, 
 J. Hasegawa, M. Ishida, T. Nakajima, Y. Honda, O. Kitao, H. Nakai, 
 T. Vreven, K. Throssell, J. A. Montgomery, Jr., J. E. Peralta, 
 F. Ogliaro, M. J. Bearpark, J. J. Heyd, E. N. Brothers, K. N. Kudin, 
 V. N. Staroverov, T. A. Keith, R. Kobayashi, J. Normand, 
 K. Raghavachari, A. P. Rendell, J. C. Burant, S. S. Iyengar, 
 J. Tomasi, M. Cossi, J. M. Millam, M. Klene, C. Adamo, R. Cammi, 
 J. W. Ochterski, R. L. Martin, K. Morokuma, O. Farkas, 
 J. B. Foresman, and D. J. Fox, Gaussian, Inc., Wallingford CT, 2016.
 
 ******************************************
 Gaussian 16:  AM64L-G16RevB.01 20-Dec-2017
                23-Jun-2019 
 ******************************************
 %chk=5G27_MTN_refine.chk
 %mem=60GB
 %nprocshared=12
 Will use up to   12 processors via shared memory.
 -----------------
 #p gen 6d pbe1pbe
 -----------------
 1/38=1,172=1/1;
 2/12=2,17=6,18=5,40=1/2;
 3/5=7,8=2,11=2,25=1,30=1,74=-13/1,2,3;
 4//1;
 5/5=2,38=5/2;
 6/7=2,8=2,9=2,10=2,28=1/1;
 99/5=1,9=1/99;
 Leave Link    1 at Sun Jun 23 21:40:59 2019, MaxMem=  8053063680 cpu:               0.0 elap:               0.1
 (Enter /data2/g16/g16/l101.exe)
 ------------------
 start preoptimized
 ------------------
 Symbolic Z-matrix:
 Charge =  0 Multiplicity = 2
 C                    -11.763    58.594    0.6 
 C                    -10.733    59.382    1.354 
 C                    -10.953    60.698    1.307 
 C                    -10.103    61.715    1.957 
 C                    -12.186    61.031    0.497 
 C                    -11.891    61.702   -0.849 
 C                    -13.232    61.81     1.272 
 C                    -12.497    57.566    1.469 
 C                    -11.18     57.962   -0.661 
 N                    -12.658    59.678    0.142 
 O                    -13.63     59.5     -0.641 
 H                    -10.024    58.978    1.8 
 H                    -9.75      61.367    2.79 
 H                    -10.625    62.51     2.148 
 H                    -11.415    62.538   -0.723 
 H                    -12.712    61.895   -1.328 
 H                    -11.345    61.129   -1.41 
 H                    -12.857    62.663    1.541 
 H                    -13.49     61.302    2.056 
 H                    -14.005    61.955    0.704 
 H                    -12.736    57.949    2.327 
 H                    -13.311    57.267    1.035 
 H                    -11.939    56.79     1.63 
 H                    -10.749    58.649   -1.193 
 H                    -10.531    57.287   -0.41 
 H                    -11.895    57.553   -1.174 
 H                    -9.25426   62.05242   1.39962 
 
 ITRead=  0  0  0  0  0  0  0  0  0  0  0  0  0  0  0  0  0  0  0  0
 ITRead=  0  0  0  0  0  0  0
 MicOpt= -1 -1 -1 -1 -1 -1 -1 -1 -1 -1 -1 -1 -1 -1 -1 -1 -1 -1 -1 -1
 MicOpt= -1 -1 -1 -1 -1 -1 -1
 NAtoms=     27 NQM=       27 NQMF=       0 NMMI=      0 NMMIF=      0
                NMic=       0 NMicF=      0.
                    Isotopes and Nuclear Properties:
 (Nuclear quadrupole moments (NQMom) in fm**2, nuclear magnetic moments (NMagM)
  in nuclear magnetons)

  Atom         1           2           3           4           5           6           7           8           9          10
 IAtWgt=          12          12          12          12          12          12          12          12          12          14
 AtmWgt=  12.0000000  12.0000000  12.0000000  12.0000000  12.0000000  12.0000000  12.0000000  12.0000000  12.0000000  14.0030740
 NucSpn=           0           0           0           0           0           0           0           0           0           2
 AtZEff=   0.0000000   0.0000000   0.0000000   0.0000000   0.0000000   0.0000000   0.0000000   0.0000000   0.0000000   0.0000000
 NQMom=    0.0000000   0.0000000   0.0000000   0.0000000   0.0000000   0.0000000   0.0000000   0.0000000   0.0000000   2.0440000
 NMagM=    0.0000000   0.0000000   0.0000000   0.0000000   0.0000000   0.0000000   0.0000000   0.0000000   0.0000000   0.4037610
 AtZNuc=   6.0000000   6.0000000   6.0000000   6.0000000   6.0000000   6.0000000   6.0000000   6.0000000   6.0000000   7.0000000

  Atom        11          12          13          14          15          16          17          18          19          20
 IAtWgt=          16           1           1           1           1           1           1           1           1           1
 AtmWgt=  15.9949146   1.0078250   1.0078250   1.0078250   1.0078250   1.0078250   1.0078250   1.0078250   1.0078250   1.0078250
 NucSpn=           0           1           1           1           1           1           1           1           1           1
 AtZEff=   0.0000000   0.0000000   0.0000000   0.0000000   0.0000000   0.0000000   0.0000000   0.0000000   0.0000000   0.0000000
 NQMom=    0.0000000   0.0000000   0.0000000   0.0000000   0.0000000   0.0000000   0.0000000   0.0000000   0.0000000   0.0000000
 NMagM=    0.0000000   2.7928460   2.7928460   2.7928460   2.7928460   2.7928460   2.7928460   2.7928460   2.7928460   2.7928460
 AtZNuc=   8.0000000   1.0000000   1.0000000   1.0000000   1.0000000   1.0000000   1.0000000   1.0000000   1.0000000   1.0000000

  Atom        21          22          23          24          25          26          27
 IAtWgt=           1           1           1           1           1           1           1
 AtmWgt=   1.0078250   1.0078250   1.0078250   1.0078250   1.0078250   1.0078250   1.0078250
 NucSpn=           1           1           1           1           1           1           1
 AtZEff=   0.0000000   0.0000000   0.0000000   0.0000000   0.0000000   0.0000000   0.0000000
 NQMom=    0.0000000   0.0000000   0.0000000   0.0000000   0.0000000   0.0000000   0.0000000
 NMagM=    2.7928460   2.7928460   2.7928460   2.7928460   2.7928460   2.7928460   2.7928460
 AtZNuc=   1.0000000   1.0000000   1.0000000   1.0000000   1.0000000   1.0000000   1.0000000
 Leave Link  101 at Sun Jun 23 21:40:59 2019, MaxMem=  8053063680 cpu:               0.0 elap:               0.2
 (Enter /data2/g16/g16/l202.exe)
                          Input orientation:                          
 ---------------------------------------------------------------------
 Center     Atomic      Atomic             Coordinates (Angstroms)
 Number     Number       Type             X           Y           Z
 ---------------------------------------------------------------------
      1          6           0      -11.763000   58.594000    0.600000
      2          6           0      -10.733000   59.382000    1.354000
      3          6           0      -10.953000   60.698000    1.307000
      4          6           0      -10.103000   61.715000    1.957000
      5          6           0      -12.186000   61.031000    0.497000
      6          6           0      -11.891000   61.702000   -0.849000
      7          6           0      -13.232000   61.810000    1.272000
      8          6           0      -12.497000   57.566000    1.469000
      9          6           0      -11.180000   57.962000   -0.661000
     10          7           0      -12.658000   59.678000    0.142000
     11          8           0      -13.630000   59.500000   -0.641000
     12          1           0      -10.024000   58.978000    1.800000
     13          1           0       -9.750000   61.367000    2.790000
     14          1           0      -10.625000   62.510000    2.148000
     15          1           0      -11.415000   62.538000   -0.723000
     16          1           0      -12.712000   61.895000   -1.328000
     17          1           0      -11.345000   61.129000   -1.410000
     18          1           0      -12.857000   62.663000    1.541000
     19          1           0      -13.490000   61.302000    2.056000
     20          1           0      -14.005000   61.955000    0.704000
     21          1           0      -12.736000   57.949000    2.327000
     22          1           0      -13.311000   57.267000    1.035000
     23          1           0      -11.939000   56.790000    1.630000
     24          1           0      -10.749000   58.649000   -1.193000
     25          1           0      -10.531000   57.287000   -0.410000
     26          1           0      -11.895000   57.553000   -1.174000
     27          1           0       -9.254256   62.052425    1.399616
 ---------------------------------------------------------------------
                    Distance matrix (angstroms):
                    1          2          3          4          5
     1  C    0.000000
     2  C    1.500120   0.000000
     3  C    2.362788   1.335090   0.000000
     4  C    3.786514   2.490662   1.476242   0.000000
     5  C    2.475582   2.358995   1.512375   2.634074   0.000000
     6  C    3.431567   3.402436   2.556599   3.327274   1.532639
     7  C    3.598917   3.485242   2.536062   3.204511   1.517097
     8  C    1.533200   2.534320   3.495655   4.814933   3.612164
     9  C    1.526248   2.505281   3.377906   4.700943   3.431000
    10  N    1.478460   2.293945   2.303183   3.737863   1.476285
    11  O    2.417976   3.519454   3.520829   4.908723   2.392518
    12  H    2.147458   0.929953   2.016058   2.742637   3.253746
    13  H    4.066669   2.639812   2.023378   0.969331   3.362267
    14  H    4.361927   3.229007   2.024403   0.970046   2.711082
    15  H    4.174514   3.839191   2.778479   3.095331   2.086598
    16  H    3.938831   4.174294   3.386756   4.198870   2.086575
    17  H    3.262062   3.326597   2.778761   3.636296   2.086512
    18  H    4.317300   3.912966   2.746124   2.942155   2.050269
    19  H    3.526433   3.432237   2.713335   3.413523   2.050448
    20  H    4.041497   4.212934   3.355348   4.105266   2.050704
    21  H    2.084534   2.648061   3.431689   4.610027   3.626310
    22  H    2.084816   3.349787   4.172039   5.561120   3.965194
    23  H    2.084776   2.872120   4.043388   5.266256   4.396678
    24  H    2.060599   2.650425   3.238830   4.442991   3.254995
    25  H    2.060624   2.746184   3.842017   5.039152   4.192757
    26  H    2.061112   3.329605   4.115064   5.507873   3.869549
    27  H    4.346710   3.052857   2.174575   1.070000   3.233133
                    6          7          8          9         10
     6  C    0.000000
     7  C    2.511690   0.000000
     8  C    4.779838   4.311678   0.000000
     9  C    3.811622   4.770146   2.535391   0.000000
    10  N    2.380535   2.480282   2.499479   2.402904   0.000000
    11  O    2.813572   3.025570   3.078335   2.892809   1.260776
    12  H    4.233564   4.311644   2.866886   2.902605   3.190129
    13  H    4.235378   3.824251   4.872233   5.054535   4.280314
    14  H    3.352257   2.837926   5.329968   5.374273   4.022108
    15  H    0.970231   2.794906   5.540431   4.582450   3.236182
    16  H    0.969913   2.652852   5.158457   4.273219   2.660621
    17  H    0.970137   3.349277   4.723422   3.258545   2.497614
    18  H    2.751141   0.969843   5.110205   5.455322   3.302579
    19  H    3.340034   0.969167   3.910027   4.886081   2.644427
    20  H    2.635302   0.970143   4.703468   5.078179   2.704622
    21  H    4.988588   4.033158   0.969523   3.368894   2.787427
    22  H    5.023453   4.549864   0.969718   2.810801   2.652693
    23  H    5.502317   5.196192   0.969258   2.682973   3.327409
    24  H    3.277699   4.715234   3.363724   0.969925   2.546634
    25  H    4.640533   5.530104   2.733796   0.969447   3.247417
    26  H    4.161711   5.088471   2.710724   0.970399   2.613360
    27  H    3.483029   3.987168   5.536083   4.968521   4.336469
                   11         12         13         14         15
    11  O    0.000000
    12  H    4.385681   0.000000
    13  H    5.505620   2.600480   0.000000
    14  H    5.086123   3.599629   1.576147   0.000000
    15  H    3.760637   4.579739   4.060127   2.977839   0.000000
    16  H    2.655319   5.051595   5.100015   4.100777   1.568975
    17  H    2.909678   4.083619   4.498963   3.883932   1.569124
    18  H    3.919595   4.655340   3.590692   2.318120   2.687133
    19  H    3.246631   4.180869   3.811900   3.110619   3.681869
    20  H    2.824301   5.090394   4.775161   3.717198   3.014020
    21  H    3.466102   2.948137   4.562158   5.029024   5.666256
    22  H    2.810165   3.783796   5.707079   5.995199   5.871015
    23  H    3.919314   2.912640   5.204445   5.891801   6.233032
    24  H    3.054352   3.097082   4.924410   5.107345   3.973509
    25  H    3.815040   2.828538   5.243697   5.816522   5.334082
    26  H    2.661789   3.791562   5.904313   6.100855   5.028322
    27  H    5.461330   3.194511   1.627495   1.627389   3.067588
                   16         17         18         19         20
    16  H    0.000000
    17  H    1.569130   0.000000
    18  H    2.973552   3.653451   0.000000
    19  H    3.522554   4.079719   1.586895   0.000000
    20  H    2.409247   3.496694   1.587368   1.587305   0.000000
    21  H    5.378710   5.100240   4.780610   3.447400   4.504723
    22  H    5.230770   4.975764   5.438655   4.166018   4.750636
    23  H    5.950489   5.331168   5.944979   4.790117   5.639420
    24  H    3.795802   2.559825   5.294395   5.010738   5.012961
    25  H    5.180072   4.052599   6.173982   5.563907   5.924517
    26  H    4.420879   3.625737   5.865899   5.199224   5.230353
    27  H    4.406888   3.621859   3.656851   4.351495   4.802390
                   21         22         23         24         25
    21  H    0.000000
    22  H    1.570036   0.000000
    23  H    1.569809   1.569694   0.000000
    24  H    4.102264   3.665754   3.583477   0.000000
    25  H    3.576512   3.133181   2.528057   1.586082   0.000000
    26  H    3.622306   2.639419   2.906290   1.585841   1.585859
    27  H    5.460832   6.284140   5.912195   4.532021   5.254908
                   26         27
    26  H    0.000000
    27  H    5.817375   0.000000
 Stoichiometry    C9H16NO(2)
 Framework group  C1[X(C9H16NO)]
 Deg. of freedom    75
 Full point group                 C1      NOp   1
 Largest Abelian subgroup         C1      NOp   1
 Largest concise Abelian subgroup C1      NOp   1
                         Standard orientation:                         
 ---------------------------------------------------------------------
 Center     Atomic      Atomic             Coordinates (Angstroms)
 Number     Number       Type             X           Y           Z
 ---------------------------------------------------------------------
      1          6           0       -1.324107    0.435837   -0.015846
      2          6           0       -0.270534    1.501532    0.052263
      3          6           0        0.968623    1.005079    0.030182
      4          6           0        2.199741    1.817882    0.084852
      5          6           0        0.965425   -0.504977   -0.053488
      6          6           0        1.418661   -1.206243    1.231730
      7          6           0        1.709236   -1.049961   -1.258195
      8          6           0       -2.275015    0.597388   -1.207641
      9          6           0       -2.080550    0.303356    1.303122
     10          7           0       -0.483797   -0.774978   -0.132678
     11          8           0       -0.940802   -1.949764   -0.108532
     12          1           0       -0.478953    2.406341    0.104183
     13          1           0        2.063296    2.655885   -0.382840
     14          1           0        2.930750    1.340681   -0.338108
     15          1           0        2.324351   -0.949262    1.466322
     16          1           0        1.399469   -2.170237    1.126475
     17          1           0        0.840379   -0.974973    1.975552
     18          1           0        2.642416   -0.792924   -1.197337
     19          1           0        1.318637   -0.682502   -2.065468
     20          1           0        1.634361   -2.017175   -1.266404
     21          1           0       -1.782903    0.821558   -2.012345
     22          1           0       -2.763581   -0.223990   -1.371944
     23          1           0       -2.918793    1.302651   -1.041468
     24          1           0       -1.445021    0.177077    2.024863
     25          1           0       -2.596510    1.109255    1.458493
     26          1           0       -2.675810   -0.461532    1.255299
     27          1           0        2.552031    2.082742    1.059860
 ---------------------------------------------------------------------
 Rotational constants (GHZ):           1.5276296           1.0640493           0.8532698
 Leave Link  202 at Sun Jun 23 21:40:59 2019, MaxMem=  8053063680 cpu:               0.0 elap:               0.0
 (Enter /data2/g16/g16/l301.exe)
 General basis read from cards:  (6D, 7F)
 Centers:      12     13     14     15     16     17     18     19     20     21
 Centers:      22     23     24     25     26     27
 6-31G
 S 1 1.00 0.000000000000
     Exponent=  4.0000000000D-01 Coefficients=  1.0000000000D+00
 P 1 1.00 0.000000000000
     Exponent=  7.5000000000D-01 Coefficients=  1.0000000000D+00
 ****
 Centers:       1      2      3      4      5      6      7      8      9
 6-31G
 S 1 1.00 0.000000000000
     Exponent=  8.7000000000D+00 Coefficients=  1.0000000000D+00
 P 1 1.00 0.000000000000
     Exponent=  5.0000000000D-02 Coefficients=  1.0000000000D+00
 D 1 1.00
     Exponent=  8.2000000000D-01 Coefficients=  1.0000000000D+00
 ****
 Centers:      10
 6-31G
 S 1 1.00 0.000000000000
     Exponent=  1.3700000000D+01 Coefficients=  1.0000000000D+00
 P 1 1.00 0.000000000000
     Exponent=  5.3000000000D-02 Coefficients=  1.0000000000D+00
 D 1 1.00 0.000000000000
     Exponent=  1.0150000000D+00 Coefficients=  1.0000000000D+00
 ****
 Centers:      11
 6-31G
 S 1 1.00
     Exponent=  1.6000000000D+01 Coefficients=  1.0000000000D+00
 P 1 1.00 0.000000000000
     Exponent=  6.5000000000D-02 Coefficients=  1.0000000000D+00
 D 1 1.00 0.000000000000
     Exponent=  1.1900000000D+00 Coefficients=  1.0000000000D+00
 D 1 1.00 0.000000000000
     Exponent=  1.8000000000D-01 Coefficients=  1.0000000000D+00
 ****
 Ernie: Thresh=  0.10000D-02 Tol=  0.10000D-05 Strict=F.
 There are   311 symmetry adapted cartesian basis functions of A   symmetry.
 There are   311 symmetry adapted basis functions of A   symmetry.
   311 basis functions,   486 primitive gaussians,   311 cartesian basis functions
    43 alpha electrons       42 beta electrons
       nuclear repulsion energy       693.5138896707 Hartrees.
 IExCor= 1009 DFT=T Ex+Corr=PBE1PBE ExCW=0 ScaHFX=  0.250000
 ScaDFX=  0.750000  0.750000  1.000000  1.000000 ScalE2=  1.000000  1.000000
 IRadAn=      5 IRanWt=     -1 IRanGd=            0 ICorTp=0 IEmpDi=  4
 NAtoms=   27 NActive=   27 NUniq=   27 SFac= 1.00D+00 NAtFMM=   60 NAOKFM=F Big=F
 Integral buffers will be    131072 words long.
 Raffenetti 2 integral format.
 Two-electron integral symmetry is turned on.
 Leave Link  301 at Sun Jun 23 21:40:59 2019, MaxMem=  8053063680 cpu:               0.0 elap:               0.2
 (Enter /data2/g16/g16/l302.exe)
 NPDir=0 NMtPBC=     1 NCelOv=     1 NCel=       1 NClECP=     1 NCelD=      1
         NCelK=      1 NCelE2=     1 NClLst=     1 CellRange=     0.0.
 One-electron integrals computed using PRISM.
 One-electron integral symmetry used in STVInt
 NBasis=   311 RedAO= T EigKep=  9.37D-05  NBF=   311
 NBsUse=   311 1.00D-06 EigRej= -1.00D+00 NBFU=   311
 Precomputing XC quadrature grid using
 IXCGrd= 4 IRadAn=           5 IRanWt=          -1 IRanGd=           0 AccXCQ= 0.00D+00.
 Generated NRdTot=       0 NPtTot=           0 NUsed=           0 NTot=          32
 NSgBfM=   309   308   308   308   309 MxSgAt=    27 MxSgA2=    27.
 Leave Link  302 at Sun Jun 23 21:40:59 2019, MaxMem=  8053063680 cpu:               0.0 elap:               0.4
 (Enter /data2/g16/g16/l303.exe)
 DipDrv:  MaxL=1.
 Leave Link  303 at Sun Jun 23 21:40:59 2019, MaxMem=  8053063680 cpu:               0.0 elap:               0.1
 (Enter /data2/g16/g16/l401.exe)
 ExpMin= 5.00D-02 ExpMax= 5.48D+03 ExpMxC= 8.25D+02 IAcc=3 IRadAn=         5 AccDes= 0.00D+00
 Harris functional with IExCor= 1009 and IRadAn=       5 diagonalized for initial guess.
 HarFok:  IExCor= 1009 AccDes= 0.00D+00 IRadAn=         5 IDoV= 1 UseB2=F ITyADJ=14
 ICtDFT=  3500011 ScaDFX=  1.000000  1.000000  1.000000  1.000000
 FoFCou: FMM=F IPFlag=           0 FMFlag=      100000 FMFlg1=           0
         NFxFlg=           0 DoJE=T BraDBF=F KetDBF=T FulRan=T
         wScrn=  0.000000 ICntrl=       500 IOpCl=  0 I1Cent=   200000004 NGrid=           0
         NMat0=    1 NMatS0=      1 NMatT0=    0 NMatD0=    1 NMtDS0=    0 NMtDT0=    0
 Petite list used in FoFCou.
 Harris En= -482.136230349475    
 JPrj=0 DoOrth=F DoCkMO=F.
 Initial guess <Sx>= 0.0000 <Sy>= 0.0000 <Sz>= 0.5000 <S**2>= 0.7500 S= 0.5000
 Leave Link  401 at Sun Jun 23 21:41:01 2019, MaxMem=  8053063680 cpu:               0.0 elap:               1.0
 (Enter /data2/g16/g16/l502.exe)
 Integral symmetry usage will be decided dynamically.
 UHF open shell SCF:
 Using DIIS extrapolation, IDIIS=  1040.
 NGot=  8053063680 LenX=  8052863195 LenY=  8052766033
 Requested convergence on RMS density matrix=1.00D-08 within 128 cycles.
 Requested convergence on MAX density matrix=1.00D-06.
 Requested convergence on             energy=1.00D-06.
 No special actions if energy rises.
 Fock matrices will be formed incrementally for  20 cycles.
 Integral accuracy reduced to 1.0D-05 until final iterations.

 Cycle   1  Pass 0  IDiag  1:
 FoFJK:  IHMeth= 1 ICntrl=       0 DoSepK=F KAlg= 0 I1Cent=           0 FoldK=F
 IRaf= 940000000 NMat=       1 IRICut=       1 DoRegI=T DoRafI=F ISym2E= 0 IDoP0=0 IntGTp=1.
 FoFCou: FMM=F IPFlag=           0 FMFlag=      100000 FMFlg1=           0
         NFxFlg=           0 DoJE=F BraDBF=F KetDBF=F FulRan=T
         wScrn=  0.000000 ICntrl=         0 IOpCl=  1 I1Cent=           0 NGrid=           0
         NMat0=    1 NMatS0=      1 NMatT0=    0 NMatD0=    1 NMtDS0=    0 NMtDT0=    0
 Symmetry not used in FoFCou.
 E= -481.258524684109    
 DIIS: error= 3.54D-02 at cycle   1 NSaved=   1.
 NSaved= 1 IEnMin= 1 EnMin= -481.258524684109     IErMin= 1 ErrMin= 3.54D-02
 ErrMax= 3.54D-02  0.00D+00 EMaxC= 1.00D-01 BMatC= 2.24D+00 BMatP= 2.24D+00
 IDIUse=3 WtCom= 6.46D-01 WtEn= 3.54D-01
 Coeff-Com:  0.100D+01
 Coeff-En:   0.100D+01
 Coeff:      0.100D+01
 Gap=     0.272 Goal=   None    Shift=    0.000
 Gap=     0.166 Goal=   None    Shift=    0.000
 GapD=    0.166 DampG=1.000 DampE=0.500 DampFc=0.5000 IDamp=-1.
 Damping current iteration by 5.00D-01
 RMSDP=4.28D-03 MaxDP=1.56D-01              OVMax= 1.94D-01

 Cycle   2  Pass 0  IDiag  1:
 RMSU=  2.08D-03    CP:  9.67D-01
 E= -481.502764188087     Delta-E=       -0.244239503978 Rises=F Damp=T
 DIIS: error= 6.97D-03 at cycle   2 NSaved=   2.
 NSaved= 2 IEnMin= 2 EnMin= -481.502764188087     IErMin= 2 ErrMin= 6.97D-03
 ErrMax= 6.97D-03  0.00D+00 EMaxC= 1.00D-01 BMatC= 1.27D-01 BMatP= 2.24D+00
 IDIUse=3 WtCom= 9.30D-01 WtEn= 6.97D-02
 Coeff-Com:  0.187D-01 0.981D+00
 Coeff-En:   0.638D-02 0.994D+00
 Coeff:      0.178D-01 0.982D+00
 Gap=     0.228 Goal=   None    Shift=    0.000
 Gap=     0.214 Goal=   None    Shift=    0.000
 RMSDP=1.25D-03 MaxDP=7.21D-02 DE=-2.44D-01 OVMax= 1.82D-01

 Cycle   3  Pass 0  IDiag  1:
 RMSU=  1.22D-03    CP:  9.49D-01  1.03D+00
 E= -481.738157251381     Delta-E=       -0.235393063293 Rises=F Damp=F
 DIIS: error= 9.09D-03 at cycle   3 NSaved=   3.
 NSaved= 3 IEnMin= 3 EnMin= -481.738157251381     IErMin= 2 ErrMin= 6.97D-03
 ErrMax= 9.09D-03  0.00D+00 EMaxC= 1.00D-01 BMatC= 1.57D-01 BMatP= 1.27D-01
 IDIUse=3 WtCom= 9.49D-02 WtEn= 9.05D-01
 Coeff-Com: -0.324D-01 0.549D+00 0.483D+00
 Coeff-En:   0.000D+00 0.000D+00 0.100D+01
 Coeff:     -0.307D-02 0.521D-01 0.951D+00
 Gap=     0.218 Goal=   None    Shift=    0.000
 Gap=     0.227 Goal=   None    Shift=    0.000
 RMSDP=1.73D-03 MaxDP=1.23D-01 DE=-2.35D-01 OVMax= 2.07D-01

 Cycle   4  Pass 0  IDiag  1:
 RMSU=  1.12D-03    CP:  9.61D-01  1.22D+00 -2.21D-02
 E= -481.664956720340     Delta-E=        0.073200531041 Rises=F Damp=F
 DIIS: error= 1.63D-02 at cycle   4 NSaved=   4.
 NSaved= 4 IEnMin= 3 EnMin= -481.738157251381     IErMin= 2 ErrMin= 6.97D-03
 ErrMax= 1.63D-02  0.00D+00 EMaxC= 1.00D-01 BMatC= 5.58D-01 BMatP= 1.27D-01
 IDIUse=2 WtCom= 0.00D+00 WtEn= 1.00D+00
 Coeff-En:   0.000D+00 0.000D+00 0.725D+00 0.275D+00
 Coeff:      0.000D+00 0.000D+00 0.725D+00 0.275D+00
 Gap=     0.210 Goal=   None    Shift=    0.000
 Gap=     0.211 Goal=   None    Shift=    0.000
 RMSDP=9.19D-04 MaxDP=6.48D-02 DE= 7.32D-02 OVMax= 1.08D-01

 Cycle   5  Pass 0  IDiag  1:
 RMSU=  2.29D-04    CP:  9.55D-01  1.10D+00  4.82D-01  4.79D-01
 E= -481.763581061044     Delta-E=       -0.098624340704 Rises=F Damp=F
 DIIS: error= 3.67D-03 at cycle   5 NSaved=   5.
 NSaved= 5 IEnMin= 5 EnMin= -481.763581061044     IErMin= 5 ErrMin= 3.67D-03
 ErrMax= 3.67D-03  0.00D+00 EMaxC= 1.00D-01 BMatC= 2.66D-02 BMatP= 1.27D-01
 IDIUse=3 WtCom= 9.63D-01 WtEn= 3.67D-02
 Coeff-Com:  0.384D-03-0.790D-02 0.267D+00-0.215D-01 0.762D+00
 Coeff-En:   0.000D+00 0.000D+00 0.175D+00 0.000D+00 0.825D+00
 Coeff:      0.370D-03-0.761D-02 0.264D+00-0.207D-01 0.764D+00
 Gap=     0.195 Goal=   None    Shift=    0.000
 Gap=     0.224 Goal=   None    Shift=    0.000
 RMSDP=2.71D-04 MaxDP=1.75D-02 DE=-9.86D-02 OVMax= 2.59D-02

 Cycle   6  Pass 0  IDiag  1:
 RMSU=  5.92D-05    CP:  9.53D-01  1.07D+00  6.45D-01  3.39D-01  8.05D-01
 E= -481.768570472107     Delta-E=       -0.004989411063 Rises=F Damp=F
 DIIS: error= 3.53D-04 at cycle   6 NSaved=   6.
 NSaved= 6 IEnMin= 6 EnMin= -481.768570472107     IErMin= 6 ErrMin= 3.53D-04
 ErrMax= 3.53D-04  0.00D+00 EMaxC= 1.00D-01 BMatC= 1.81D-04 BMatP= 2.66D-02
 IDIUse=3 WtCom= 9.96D-01 WtEn= 3.53D-03
 Coeff-Com: -0.169D-02-0.707D-03 0.585D-01-0.529D-01 0.384D+00 0.612D+00
 Coeff-En:   0.000D+00 0.000D+00 0.000D+00 0.000D+00 0.000D+00 0.100D+01
 Coeff:     -0.168D-02-0.704D-03 0.583D-01-0.527D-01 0.383D+00 0.614D+00
 Gap=     0.196 Goal=   None    Shift=    0.000
 Gap=     0.224 Goal=   None    Shift=    0.000
 RMSDP=3.65D-05 MaxDP=2.47D-03 DE=-4.99D-03 OVMax= 2.14D-03

 Cycle   7  Pass 0  IDiag  1:
 RMSU=  1.81D-05    CP:  9.53D-01  1.07D+00  6.39D-01  3.43D-01  9.26D-01
                    CP:  7.89D-01
 E= -481.768610792723     Delta-E=       -0.000040320616 Rises=F Damp=F
 DIIS: error= 8.83D-05 at cycle   7 NSaved=   7.
 NSaved= 7 IEnMin= 7 EnMin= -481.768610792723     IErMin= 7 ErrMin= 8.83D-05
 ErrMax= 8.83D-05  0.00D+00 EMaxC= 1.00D-01 BMatC= 1.39D-05 BMatP= 1.81D-04
 IDIUse=1 WtCom= 1.00D+00 WtEn= 0.00D+00
 Coeff-Com: -0.742D-03 0.575D-03 0.277D-02-0.217D-01 0.947D-01 0.204D+00
 Coeff-Com:  0.720D+00
 Coeff:     -0.742D-03 0.575D-03 0.277D-02-0.217D-01 0.947D-01 0.204D+00
 Coeff:      0.720D+00
 Gap=     0.196 Goal=   None    Shift=    0.000
 Gap=     0.225 Goal=   None    Shift=    0.000
 RMSDP=1.05D-05 MaxDP=5.56D-04 DE=-4.03D-05 OVMax= 1.13D-03

 Cycle   8  Pass 0  IDiag  1:
 RMSU=  8.81D-06    CP:  9.53D-01  1.07D+00  6.40D-01  3.42D-01  9.48D-01
                    CP:  8.13D-01  9.31D-01
 E= -481.768613380192     Delta-E=       -0.000002587470 Rises=F Damp=F
 DIIS: error= 4.45D-05 at cycle   8 NSaved=   8.
 NSaved= 8 IEnMin= 8 EnMin= -481.768613380192     IErMin= 8 ErrMin= 4.45D-05
 ErrMax= 4.45D-05  0.00D+00 EMaxC= 1.00D-01 BMatC= 6.08D-06 BMatP= 1.39D-05
 IDIUse=1 WtCom= 1.00D+00 WtEn= 0.00D+00
 Coeff-Com:  0.404D-05 0.508D-03-0.146D-01 0.224D-04-0.473D-01-0.499D-01
 Coeff-Com:  0.461D+00 0.650D+00
 Coeff:      0.404D-05 0.508D-03-0.146D-01 0.224D-04-0.473D-01-0.499D-01
 Coeff:      0.461D+00 0.650D+00
 Gap=     0.196 Goal=   None    Shift=    0.000
 Gap=     0.225 Goal=   None    Shift=    0.000
 RMSDP=6.32D-06 MaxDP=3.23D-04 DE=-2.59D-06 OVMax= 6.88D-04

 Initial convergence to 1.0D-05 achieved.  Increase integral accuracy.
 Cycle   9  Pass 1  IDiag  1:
 E= -481.768630578411     Delta-E=       -0.000017198219 Rises=F Damp=F
 DIIS: error= 1.50D-05 at cycle   1 NSaved=   1.
 NSaved= 1 IEnMin= 1 EnMin= -481.768630578411     IErMin= 1 ErrMin= 1.50D-05
 ErrMax= 1.50D-05  0.00D+00 EMaxC= 1.00D-01 BMatC= 9.47D-07 BMatP= 9.47D-07
 IDIUse=1 WtCom= 1.00D+00 WtEn= 0.00D+00
 Coeff-Com:  0.100D+01
 Coeff:      0.100D+01
 Gap=     0.197 Goal=   None    Shift=    0.000
 Gap=     0.225 Goal=   None    Shift=    0.000
 RMSDP=6.32D-06 MaxDP=3.23D-04 DE=-1.72D-05 OVMax= 4.42D-04

 Cycle  10  Pass 1  IDiag  1:
 RMSU=  1.19D-05    CP:  1.00D+00
 E= -481.768630516175     Delta-E=        0.000000062236 Rises=F Damp=F
 DIIS: error= 2.22D-05 at cycle   2 NSaved=   2.
 NSaved= 2 IEnMin= 1 EnMin= -481.768630578411     IErMin= 1 ErrMin= 1.50D-05
 ErrMax= 2.22D-05  0.00D+00 EMaxC= 1.00D-01 BMatC= 1.30D-06 BMatP= 9.47D-07
 IDIUse=1 WtCom= 1.00D+00 WtEn= 0.00D+00
 Coeff-Com:  0.548D+00 0.452D+00
 Coeff:      0.548D+00 0.452D+00
 Gap=     0.197 Goal=   None    Shift=    0.000
 Gap=     0.225 Goal=   None    Shift=    0.000
 RMSDP=2.57D-06 MaxDP=1.71D-04 DE= 6.22D-08 OVMax= 3.47D-04

 Cycle  11  Pass 1  IDiag  1:
 RMSU=  2.55D-06    CP:  1.00D+00  9.75D-01
 E= -481.768630815136     Delta-E=       -0.000000298961 Rises=F Damp=F
 DIIS: error= 7.11D-06 at cycle   3 NSaved=   3.
 NSaved= 3 IEnMin= 3 EnMin= -481.768630815136     IErMin= 3 ErrMin= 7.11D-06
 ErrMax= 7.11D-06  0.00D+00 EMaxC= 1.00D-01 BMatC= 1.33D-07 BMatP= 9.47D-07
 IDIUse=1 WtCom= 1.00D+00 WtEn= 0.00D+00
 Coeff-Com:  0.259D-01 0.230D+00 0.744D+00
 Coeff:      0.259D-01 0.230D+00 0.744D+00
 Gap=     0.197 Goal=   None    Shift=    0.000
 Gap=     0.225 Goal=   None    Shift=    0.000
 RMSDP=8.50D-07 MaxDP=4.70D-05 DE=-2.99D-07 OVMax= 9.96D-05

 Cycle  12  Pass 1  IDiag  1:
 RMSU=  6.53D-07    CP:  1.00D+00  1.01D+00  8.44D-01
 E= -481.768630850092     Delta-E=       -0.000000034956 Rises=F Damp=F
 DIIS: error= 2.91D-06 at cycle   4 NSaved=   4.
 NSaved= 4 IEnMin= 4 EnMin= -481.768630850092     IErMin= 4 ErrMin= 2.91D-06
 ErrMax= 2.91D-06  0.00D+00 EMaxC= 1.00D-01 BMatC= 1.22D-08 BMatP= 1.33D-07
 IDIUse=1 WtCom= 1.00D+00 WtEn= 0.00D+00
 Coeff-Com: -0.390D-01 0.608D-01 0.298D+00 0.680D+00
 Coeff:     -0.390D-01 0.608D-01 0.298D+00 0.680D+00
 Gap=     0.197 Goal=   None    Shift=    0.000
 Gap=     0.225 Goal=   None    Shift=    0.000
 RMSDP=3.17D-07 MaxDP=3.26D-05 DE=-3.50D-08 OVMax= 5.80D-05

 Cycle  13  Pass 1  IDiag  1:
 RMSU=  3.07D-07    CP:  1.00D+00  1.01D+00  8.42D-01  9.95D-01
 E= -481.768630854313     Delta-E=       -0.000000004221 Rises=F Damp=F
 DIIS: error= 1.93D-06 at cycle   5 NSaved=   5.
 NSaved= 5 IEnMin= 5 EnMin= -481.768630854313     IErMin= 5 ErrMin= 1.93D-06
 ErrMax= 1.93D-06  0.00D+00 EMaxC= 1.00D-01 BMatC= 4.73D-09 BMatP= 1.22D-08
 IDIUse=1 WtCom= 1.00D+00 WtEn= 0.00D+00
 Coeff-Com: -0.244D-01-0.295D-01-0.726D-01 0.339D+00 0.787D+00
 Coeff:     -0.244D-01-0.295D-01-0.726D-01 0.339D+00 0.787D+00
 Gap=     0.197 Goal=   None    Shift=    0.000
 Gap=     0.225 Goal=   None    Shift=    0.000
 RMSDP=2.37D-07 MaxDP=1.48D-05 DE=-4.22D-09 OVMax= 1.77D-05

 Cycle  14  Pass 1  IDiag  1:
 RMSU=  1.67D-07    CP:  1.00D+00  1.01D+00  8.40D-01  1.21D+00  1.27D+00
 E= -481.768630855823     Delta-E=       -0.000000001510 Rises=F Damp=F
 DIIS: error= 1.17D-06 at cycle   6 NSaved=   6.
 NSaved= 6 IEnMin= 6 EnMin= -481.768630855823     IErMin= 6 ErrMin= 1.17D-06
 ErrMax= 1.17D-06  0.00D+00 EMaxC= 1.00D-01 BMatC= 1.19D-09 BMatP= 4.73D-09
 IDIUse=1 WtCom= 1.00D+00 WtEn= 0.00D+00
 Coeff-Com: -0.177D-02-0.342D-01-0.138D+00 0.312D-01 0.481D+00 0.661D+00
 Coeff:     -0.177D-02-0.342D-01-0.138D+00 0.312D-01 0.481D+00 0.661D+00
 Gap=     0.197 Goal=   None    Shift=    0.000
 Gap=     0.225 Goal=   None    Shift=    0.000
 RMSDP=1.02D-07 MaxDP=1.28D-05 DE=-1.51D-09 OVMax= 2.26D-05

 Cycle  15  Pass 1  IDiag  1:
 RMSU=  7.22D-08    CP:  1.00D+00  1.01D+00  8.38D-01  1.31D+00  1.35D+00
                    CP:  8.67D-01
 E= -481.768630856177     Delta-E=       -0.000000000354 Rises=F Damp=F
 DIIS: error= 3.30D-07 at cycle   7 NSaved=   7.
 NSaved= 7 IEnMin= 7 EnMin= -481.768630856177     IErMin= 7 ErrMin= 3.30D-07
 ErrMax= 3.30D-07  0.00D+00 EMaxC= 1.00D-01 BMatC= 2.91D-10 BMatP= 1.19D-09
 IDIUse=1 WtCom= 1.00D+00 WtEn= 0.00D+00
 Coeff-Com:  0.188D-02-0.172D-01-0.757D-01-0.288D-01 0.165D+00 0.411D+00
 Coeff-Com:  0.543D+00
 Coeff:      0.188D-02-0.172D-01-0.757D-01-0.288D-01 0.165D+00 0.411D+00
 Coeff:      0.543D+00
 Gap=     0.197 Goal=   None    Shift=    0.000
 Gap=     0.225 Goal=   None    Shift=    0.000
 RMSDP=4.84D-08 MaxDP=2.85D-06 DE=-3.54D-10 OVMax= 6.01D-06

 Cycle  16  Pass 1  IDiag  1:
 RMSU=  3.06D-08    CP:  1.00D+00  1.01D+00  8.37D-01  1.34D+00  1.43D+00
                    CP:  9.41D-01  8.29D-01
 E= -481.768630856321     Delta-E=       -0.000000000145 Rises=F Damp=F
 DIIS: error= 1.31D-07 at cycle   8 NSaved=   8.
 NSaved= 8 IEnMin= 8 EnMin= -481.768630856321     IErMin= 8 ErrMin= 1.31D-07
 ErrMax= 1.31D-07  0.00D+00 EMaxC= 1.00D-01 BMatC= 1.47D-11 BMatP= 2.91D-10
 IDIUse=1 WtCom= 1.00D+00 WtEn= 0.00D+00
 Coeff-Com:  0.522D-05 0.780D-02 0.316D-01 0.208D-02-0.970D-01-0.151D+00
 Coeff-Com: -0.940D-01 0.130D+01
 Coeff:      0.522D-05 0.780D-02 0.316D-01 0.208D-02-0.970D-01-0.151D+00
 Coeff:     -0.940D-01 0.130D+01
 Gap=     0.197 Goal=   None    Shift=    0.000
 Gap=     0.225 Goal=   None    Shift=    0.000
 RMSDP=2.89D-08 MaxDP=2.53D-06 DE=-1.45D-10 OVMax= 5.69D-06

 Cycle  17  Pass 1  IDiag  1:
 RMSU=  1.80D-08    CP:  1.00D+00  1.01D+00  8.37D-01  1.35D+00  1.44D+00
                    CP:  9.93D-01  1.02D+00  1.47D+00
 E= -481.768630856332     Delta-E=       -0.000000000010 Rises=F Damp=F
 DIIS: error= 7.49D-08 at cycle   9 NSaved=   9.
 NSaved= 9 IEnMin= 9 EnMin= -481.768630856332     IErMin= 9 ErrMin= 7.49D-08
 ErrMax= 7.49D-08  0.00D+00 EMaxC= 1.00D-01 BMatC= 8.93D-12 BMatP= 1.47D-11
 IDIUse=1 WtCom= 1.00D+00 WtEn= 0.00D+00
 Coeff-Com: -0.646D-03 0.104D-01 0.440D-01 0.105D-01-0.112D+00-0.228D+00
 Coeff-Com: -0.231D+00 0.744D+00 0.762D+00
 Coeff:     -0.646D-03 0.104D-01 0.440D-01 0.105D-01-0.112D+00-0.228D+00
 Coeff:     -0.231D+00 0.744D+00 0.762D+00
 Gap=     0.197 Goal=   None    Shift=    0.000
 Gap=     0.225 Goal=   None    Shift=    0.000
 RMSDP=1.76D-08 MaxDP=1.65D-06 DE=-1.02D-11 OVMax= 3.69D-06

 Cycle  18  Pass 1  IDiag  1:
 RMSU=  9.88D-09    CP:  1.00D+00  1.01D+00  8.36D-01  1.35D+00  1.45D+00
                    CP:  1.01D+00  1.12D+00  1.81D+00  1.30D+00
 E= -481.768630856340     Delta-E=       -0.000000000008 Rises=F Damp=F
 DIIS: error= 3.93D-08 at cycle  10 NSaved=  10.
 NSaved=10 IEnMin=10 EnMin= -481.768630856340     IErMin=10 ErrMin= 3.93D-08
 ErrMax= 3.93D-08  0.00D+00 EMaxC= 1.00D-01 BMatC= 1.45D-12 BMatP= 8.93D-12
 IDIUse=1 WtCom= 1.00D+00 WtEn= 0.00D+00
 Coeff-Com: -0.422D-04-0.145D-02-0.539D-02-0.303D-03 0.208D-01 0.208D-01
 Coeff-Com:  0.157D-01-0.323D+00 0.619D-01 0.121D+01
 Coeff:     -0.422D-04-0.145D-02-0.539D-02-0.303D-03 0.208D-01 0.208D-01
 Coeff:      0.157D-01-0.323D+00 0.619D-01 0.121D+01
 Gap=     0.197 Goal=   None    Shift=    0.000
 Gap=     0.225 Goal=   None    Shift=    0.000
 RMSDP=1.16D-08 MaxDP=1.13D-06 DE=-8.41D-12 OVMax= 2.50D-06

 Cycle  19  Pass 1  IDiag  1:
 RMSU=  3.33D-09    CP:  1.00D+00  1.01D+00  8.37D-01  1.35D+00  1.45D+00
                    CP:  1.01D+00  1.17D+00  1.97D+00  1.73D+00  1.47D+00
 E= -481.768630856354     Delta-E=       -0.000000000014 Rises=F Damp=F
 DIIS: error= 1.44D-08 at cycle  11 NSaved=  11.
 NSaved=11 IEnMin=11 EnMin= -481.768630856354     IErMin=11 ErrMin= 1.44D-08
 ErrMax= 1.44D-08  0.00D+00 EMaxC= 1.00D-01 BMatC= 3.38D-13 BMatP= 1.45D-12
 IDIUse=1 WtCom= 1.00D+00 WtEn= 0.00D+00
 Coeff-Com:  0.168D-03-0.334D-02-0.138D-01-0.352D-02 0.381D-01 0.683D-01
 Coeff-Com:  0.728D-01-0.295D+00-0.193D+00 0.300D+00 0.103D+01
 Coeff:      0.168D-03-0.334D-02-0.138D-01-0.352D-02 0.381D-01 0.683D-01
 Coeff:      0.728D-01-0.295D+00-0.193D+00 0.300D+00 0.103D+01
 Gap=     0.197 Goal=   None    Shift=    0.000
 Gap=     0.225 Goal=   None    Shift=    0.000
 RMSDP=5.39D-09 MaxDP=5.14D-07 DE=-1.39D-11 OVMax= 1.16D-06

 SCF Done:  E(UPBE1PBE) =  -481.768630856     A.U. after   19 cycles
            NFock= 19  Conv=0.54D-08     -V/T= 1.9996
 <Sx>= 0.0000 <Sy>= 0.0000 <Sz>= 0.5000 <S**2>= 0.7550 S= 0.5025
 <L.S>=  0.00000000000    
 KE= 4.819526227371D+02 PE=-2.509326037132D+03 EE= 8.520908938679D+02
 Annihilation of the first spin contaminant:
 S**2 before annihilation     0.7550,   after     0.7500
 Leave Link  502 at Sun Jun 23 21:42:12 2019, MaxMem=  8053063680 cpu:               0.0 elap:              71.4
 (Enter /data2/g16/g16/l601.exe)
 Copying SCF densities to generalized density rwf, IOpCl= 1 IROHF=0.

 **********************************************************************

            Population analysis using the SCF Density.

 **********************************************************************

 Orbital symmetries:
 Alpha Orbitals:
       Occupied  (A) (A) (A) (A) (A) (A) (A) (A) (A) (A) (A) (A)
                 (A) (A) (A) (A) (A) (A) (A) (A) (A) (A) (A) (A)
                 (A) (A) (A) (A) (A) (A) (A) (A) (A) (A) (A) (A)
                 (A) (A) (A) (A) (A) (A) (A)
       Virtual   (A) (A) (A) (A) (A) (A) (A) (A) (A) (A) (A) (A)
                 (A) (A) (A) (A) (A) (A) (A) (A) (A) (A) (A) (A)
                 (A) (A) (A) (A) (A) (A) (A) (A) (A) (A) (A) (A)
                 (A) (A) (A) (A) (A) (A) (A) (A) (A) (A) (A) (A)
                 (A) (A) (A) (A) (A) (A) (A) (A) (A) (A) (A) (A)
                 (A) (A) (A) (A) (A) (A) (A) (A) (A) (A) (A) (A)
                 (A) (A) (A) (A) (A) (A) (A) (A) (A) (A) (A) (A)
                 (A) (A) (A) (A) (A) (A) (A) (A) (A) (A) (A) (A)
                 (A) (A) (A) (A) (A) (A) (A) (A) (A) (A) (A) (A)
                 (A) (A) (A) (A) (A) (A) (A) (A) (A) (A) (A) (A)
                 (A) (A) (A) (A) (A) (A) (A) (A) (A) (A) (A) (A)
                 (A) (A) (A) (A) (A) (A) (A) (A) (A) (A) (A) (A)
                 (A) (A) (A) (A) (A) (A) (A) (A) (A) (A) (A) (A)
                 (A) (A) (A) (A) (A) (A) (A) (A) (A) (A) (A) (A)
                 (A) (A) (A) (A) (A) (A) (A) (A) (A) (A) (A) (A)
                 (A) (A) (A) (A) (A) (A) (A) (A) (A) (A) (A) (A)
                 (A) (A) (A) (A) (A) (A) (A) (A) (A) (A) (A) (A)
                 (A) (A) (A) (A) (A) (A) (A) (A) (A) (A) (A) (A)
                 (A) (A) (A) (A) (A) (A) (A) (A) (A) (A) (A) (A)
                 (A) (A) (A) (A) (A) (A) (A) (A) (A) (A) (A) (A)
                 (A) (A) (A) (A) (A) (A) (A) (A) (A) (A) (A) (A)
                 (A) (A) (A) (A) (A) (A) (A) (A) (A) (A) (A) (A)
                 (A) (A) (A) (A)
 Beta  Orbitals:
       Occupied  (A) (A) (A) (A) (A) (A) (A) (A) (A) (A) (A) (A)
                 (A) (A) (A) (A) (A) (A) (A) (A) (A) (A) (A) (A)
                 (A) (A) (A) (A) (A) (A) (A) (A) (A) (A) (A) (A)
                 (A) (A) (A) (A) (A) (A)
       Virtual   (A) (A) (A) (A) (A) (A) (A) (A) (A) (A) (A) (A)
                 (A) (A) (A) (A) (A) (A) (A) (A) (A) (A) (A) (A)
                 (A) (A) (A) (A) (A) (A) (A) (A) (A) (A) (A) (A)
                 (A) (A) (A) (A) (A) (A) (A) (A) (A) (A) (A) (A)
                 (A) (A) (A) (A) (A) (A) (A) (A) (A) (A) (A) (A)
                 (A) (A) (A) (A) (A) (A) (A) (A) (A) (A) (A) (A)
                 (A) (A) (A) (A) (A) (A) (A) (A) (A) (A) (A) (A)
                 (A) (A) (A) (A) (A) (A) (A) (A) (A) (A) (A) (A)
                 (A) (A) (A) (A) (A) (A) (A) (A) (A) (A) (A) (A)
                 (A) (A) (A) (A) (A) (A) (A) (A) (A) (A) (A) (A)
                 (A) (A) (A) (A) (A) (A) (A) (A) (A) (A) (A) (A)
                 (A) (A) (A) (A) (A) (A) (A) (A) (A) (A) (A) (A)
                 (A) (A) (A) (A) (A) (A) (A) (A) (A) (A) (A) (A)
                 (A) (A) (A) (A) (A) (A) (A) (A) (A) (A) (A) (A)
                 (A) (A) (A) (A) (A) (A) (A) (A) (A) (A) (A) (A)
                 (A) (A) (A) (A) (A) (A) (A) (A) (A) (A) (A) (A)
                 (A) (A) (A) (A) (A) (A) (A) (A) (A) (A) (A) (A)
                 (A) (A) (A) (A) (A) (A) (A) (A) (A) (A) (A) (A)
                 (A) (A) (A) (A) (A) (A) (A) (A) (A) (A) (A) (A)
                 (A) (A) (A) (A) (A) (A) (A) (A) (A) (A) (A) (A)
                 (A) (A) (A) (A) (A) (A) (A) (A) (A) (A) (A) (A)
                 (A) (A) (A) (A) (A) (A) (A) (A) (A) (A) (A) (A)
                 (A) (A) (A) (A) (A)
 The electronic state is 2-A.
 Alpha  occ. eigenvalues --  -19.21785 -14.47617 -10.27758 -10.27692 -10.24809
 Alpha  occ. eigenvalues --  -10.21761 -10.20762 -10.18457 -10.18248 -10.18141
 Alpha  occ. eigenvalues --  -10.17987  -1.13094  -0.92655  -0.85230  -0.81264
 Alpha  occ. eigenvalues --   -0.77015  -0.75290  -0.74730  -0.72840  -0.65680
 Alpha  occ. eigenvalues --   -0.59874  -0.56200  -0.51887  -0.50842  -0.48894
 Alpha  occ. eigenvalues --   -0.48166  -0.46674  -0.45416  -0.44765  -0.44462
 Alpha  occ. eigenvalues --   -0.44213  -0.43107  -0.42453  -0.42268  -0.40982
 Alpha  occ. eigenvalues --   -0.39928  -0.37003  -0.36732  -0.35997  -0.34727
 Alpha  occ. eigenvalues --   -0.26441  -0.26024  -0.19158
 Alpha virt. eigenvalues --    0.00496   0.03102   0.03617   0.04371   0.05120
 Alpha virt. eigenvalues --    0.05966   0.06259   0.06378   0.07205   0.08303
 Alpha virt. eigenvalues --    0.09255   0.09669   0.09735   0.10149   0.10759
 Alpha virt. eigenvalues --    0.11324   0.12523   0.12713   0.13930   0.14657
 Alpha virt. eigenvalues --    0.15086   0.15453   0.15883   0.16899   0.17741
 Alpha virt. eigenvalues --    0.18457   0.18937   0.19807   0.20529   0.21243
 Alpha virt. eigenvalues --    0.21947   0.22403   0.22944   0.23891   0.24262
 Alpha virt. eigenvalues --    0.25288   0.25443   0.26717   0.28103   0.28491
 Alpha virt. eigenvalues --    0.28961   0.29917   0.30551   0.31161   0.32000
 Alpha virt. eigenvalues --    0.32708   0.33142   0.33471   0.34016   0.34925
 Alpha virt. eigenvalues --    0.35943   0.36340   0.36649   0.38361   0.40061
 Alpha virt. eigenvalues --    0.42815   0.43198   0.45756   0.47669   0.48429
 Alpha virt. eigenvalues --    0.50122   0.51110   0.52224   0.53251   0.55434
 Alpha virt. eigenvalues --    0.55511   0.56433   0.57497   0.57921   0.59338
 Alpha virt. eigenvalues --    0.59634   0.61105   0.62572   0.63912   0.64902
 Alpha virt. eigenvalues --    0.65257   0.66272   0.67613   0.68879   0.70493
 Alpha virt. eigenvalues --    0.72482   0.73023   0.74274   0.75277   0.76573
 Alpha virt. eigenvalues --    0.78056   0.79351   0.80569   0.82189   0.83028
 Alpha virt. eigenvalues --    0.83974   0.84920   0.87196   0.88733   0.90082
 Alpha virt. eigenvalues --    0.92162   0.93212   0.94203   0.95275   0.95580
 Alpha virt. eigenvalues --    0.96279   0.97143   0.97782   0.97999   0.99325
 Alpha virt. eigenvalues --    1.01398   1.02022   1.02257   1.04255   1.05696
 Alpha virt. eigenvalues --    1.08408   1.09777   1.10868   1.11152   1.12577
 Alpha virt. eigenvalues --    1.14035   1.14788   1.18206   1.18789   1.22425
 Alpha virt. eigenvalues --    1.24896   1.27299   1.32182   1.33046   1.33853
 Alpha virt. eigenvalues --    1.37497   1.39442   1.42010   1.43112   1.46956
 Alpha virt. eigenvalues --    1.51033   1.54849   1.56337   1.57069   1.57792
 Alpha virt. eigenvalues --    1.59351   1.60061   1.61457   1.63318   1.66656
 Alpha virt. eigenvalues --    1.67502   1.70011   1.70771   1.72616   1.74977
 Alpha virt. eigenvalues --    1.76314   1.77631   1.79570   1.80985   1.81425
 Alpha virt. eigenvalues --    1.83353   1.84025   1.85217   1.85374   1.86538
 Alpha virt. eigenvalues --    1.88033   1.89037   1.89909   1.91320   1.92260
 Alpha virt. eigenvalues --    1.92648   1.95301   1.96363   1.96840   1.99449
 Alpha virt. eigenvalues --    2.01976   2.04622   2.05895   2.09420   2.10312
 Alpha virt. eigenvalues --    2.11018   2.13161   2.15022   2.15613   2.17677
 Alpha virt. eigenvalues --    2.18964   2.20452   2.24393   2.25827   2.27761
 Alpha virt. eigenvalues --    2.30718   2.35670   2.38150   2.39154   2.41513
 Alpha virt. eigenvalues --    2.45753   2.46861   2.49413   2.51875   2.52722
 Alpha virt. eigenvalues --    2.56265   2.60041   2.61541   2.62296   2.62846
 Alpha virt. eigenvalues --    2.65113   2.67064   2.68744   2.72354   2.76385
 Alpha virt. eigenvalues --    2.77931   2.78307   2.79619   2.81439   2.85439
 Alpha virt. eigenvalues --    2.86574   2.88602   2.90886   2.91778   2.95703
 Alpha virt. eigenvalues --    2.96661   2.98968   2.99248   3.01526   3.02842
 Alpha virt. eigenvalues --    3.03667   3.04372   3.05837   3.07329   3.07861
 Alpha virt. eigenvalues --    3.09276   3.10105   3.11421   3.13510   3.17415
 Alpha virt. eigenvalues --    3.22974   3.24440   3.25956   3.32407   3.39055
 Alpha virt. eigenvalues --    3.41519   3.45634   3.47146   3.47908   3.51508
 Alpha virt. eigenvalues --    3.52681   3.53495   3.54643   3.56654   3.59674
 Alpha virt. eigenvalues --    3.60050   3.62014   3.70536   3.71446   3.72659
 Alpha virt. eigenvalues --    3.96658   4.49793   4.63412   4.67199   4.77274
 Alpha virt. eigenvalues --    4.86520   4.87026   4.95374   5.03636   5.10752
 Alpha virt. eigenvalues --    5.46116   6.07198  58.51821  58.52012  58.52347
 Alpha virt. eigenvalues --   58.58417  58.59767  58.61099  58.61283  58.61444
 Alpha virt. eigenvalues --   58.61643  95.61467 106.39669
  Beta  occ. eigenvalues --  -19.20398 -14.46390 -10.27825 -10.27760 -10.24809
  Beta  occ. eigenvalues --  -10.21759 -10.20764 -10.18408 -10.18201 -10.18088
  Beta  occ. eigenvalues --  -10.17934  -1.10488  -0.91713  -0.85104  -0.80936
  Beta  occ. eigenvalues --   -0.76432  -0.75087  -0.74619  -0.71892  -0.65508
  Beta  occ. eigenvalues --   -0.59456  -0.55625  -0.51327  -0.48847  -0.48514
  Beta  occ. eigenvalues --   -0.47833  -0.46309  -0.45020  -0.44714  -0.44396
  Beta  occ. eigenvalues --   -0.44064  -0.42886  -0.42285  -0.41591  -0.39513
  Beta  occ. eigenvalues --   -0.39348  -0.36830  -0.35927  -0.34669  -0.32383
  Beta  occ. eigenvalues --   -0.25719  -0.25287
  Beta virt. eigenvalues --   -0.02818   0.00535   0.03125   0.03638   0.04445
  Beta virt. eigenvalues --    0.05188   0.05990   0.06329   0.06429   0.07302
  Beta virt. eigenvalues --    0.08362   0.09377   0.09699   0.09821   0.10274
  Beta virt. eigenvalues --    0.10808   0.11371   0.12584   0.12865   0.14068
  Beta virt. eigenvalues --    0.14721   0.15145   0.15572   0.15941   0.17451
  Beta virt. eigenvalues --    0.18003   0.18614   0.19126   0.19991   0.20632
  Beta virt. eigenvalues --    0.21601   0.22109   0.22686   0.23257   0.24091
  Beta virt. eigenvalues --    0.24581   0.25501   0.25564   0.26860   0.28271
  Beta virt. eigenvalues --    0.28688   0.29196   0.30051   0.30819   0.31375
  Beta virt. eigenvalues --    0.32084   0.32896   0.33413   0.33748   0.34126
  Beta virt. eigenvalues --    0.35156   0.36165   0.36532   0.36756   0.38419
  Beta virt. eigenvalues --    0.40248   0.42894   0.43758   0.45810   0.47732
  Beta virt. eigenvalues --    0.48545   0.50298   0.51272   0.52418   0.53495
  Beta virt. eigenvalues --    0.55528   0.55727   0.56554   0.57629   0.58085
  Beta virt. eigenvalues --    0.59590   0.59844   0.61204   0.62701   0.63972
  Beta virt. eigenvalues --    0.65156   0.65560   0.66370   0.67781   0.69049
  Beta virt. eigenvalues --    0.70584   0.72866   0.73369   0.74405   0.75416
  Beta virt. eigenvalues --    0.77009   0.78414   0.79414   0.80822   0.82429
  Beta virt. eigenvalues --    0.83159   0.84099   0.84995   0.87305   0.88836
  Beta virt. eigenvalues --    0.90129   0.92490   0.93461   0.94374   0.95331
  Beta virt. eigenvalues --    0.96323   0.96458   0.97336   0.97864   0.98305
  Beta virt. eigenvalues --    0.99995   1.01518   1.02202   1.02332   1.04438
  Beta virt. eigenvalues --    1.05813   1.08564   1.09870   1.11229   1.11345
  Beta virt. eigenvalues --    1.12734   1.14126   1.15009   1.18894   1.19534
  Beta virt. eigenvalues --    1.22586   1.25405   1.28394   1.32775   1.33730
  Beta virt. eigenvalues --    1.34402   1.37814   1.39584   1.42747   1.43389
  Beta virt. eigenvalues --    1.47199   1.51109   1.55126   1.56525   1.57092
  Beta virt. eigenvalues --    1.57827   1.59420   1.60122   1.61612   1.63561
  Beta virt. eigenvalues --    1.66943   1.67672   1.70472   1.71205   1.72879
  Beta virt. eigenvalues --    1.75144   1.76441   1.77821   1.79673   1.81106
  Beta virt. eigenvalues --    1.81498   1.83428   1.84112   1.85309   1.85493
  Beta virt. eigenvalues --    1.86618   1.88084   1.89116   1.90055   1.91402
  Beta virt. eigenvalues --    1.92326   1.92805   1.95546   1.96493   1.97149
  Beta virt. eigenvalues --    1.99746   2.02120   2.05043   2.06121   2.09626
  Beta virt. eigenvalues --    2.10432   2.11229   2.14146   2.15336   2.16469
  Beta virt. eigenvalues --    2.17974   2.19262   2.20977   2.24572   2.26191
  Beta virt. eigenvalues --    2.27968   2.31288   2.36723   2.38204   2.39372
  Beta virt. eigenvalues --    2.41569   2.45823   2.47115   2.49703   2.52290
  Beta virt. eigenvalues --    2.53193   2.56513   2.60195   2.61868   2.62749
  Beta virt. eigenvalues --    2.63311   2.65999   2.67346   2.68879   2.72542
  Beta virt. eigenvalues --    2.76591   2.78319   2.79084   2.79833   2.81864
  Beta virt. eigenvalues --    2.85585   2.87552   2.89834   2.92077   2.93464
  Beta virt. eigenvalues --    2.96423   2.96751   2.99049   2.99440   3.01758
  Beta virt. eigenvalues --    3.02957   3.03822   3.04586   3.06024   3.07514
  Beta virt. eigenvalues --    3.08150   3.09529   3.10311   3.11915   3.13705
  Beta virt. eigenvalues --    3.17811   3.24528   3.26127   3.27221   3.32607
  Beta virt. eigenvalues --    3.39078   3.41591   3.45685   3.47175   3.48285
  Beta virt. eigenvalues --    3.51548   3.52743   3.53547   3.54733   3.56762
  Beta virt. eigenvalues --    3.59742   3.60097   3.62105   3.70619   3.71488
  Beta virt. eigenvalues --    3.72691   3.98276   4.49878   4.63489   4.67395
  Beta virt. eigenvalues --    4.77307   4.86638   4.87146   4.95481   5.03687
  Beta virt. eigenvalues --    5.10754   5.48032   6.09638  58.51764  58.51955
  Beta virt. eigenvalues --   58.52345  58.58415  58.59767  58.61144  58.61327
  Beta virt. eigenvalues --   58.61491  58.61690  95.62424 106.40775
          Condensed to atoms (all electrons):
               1          2          3          4          5          6
     1  C    5.355193   0.277933  -0.049776   0.019978  -0.198561   0.014162
     2  C    0.277933   5.132456   0.706547  -0.059018  -0.050827  -0.005139
     3  C   -0.049776   0.706547   5.084080   0.254011   0.296339  -0.052055
     4  C    0.019978  -0.059018   0.254011   4.968320  -0.071390   0.008745
     5  C   -0.198561  -0.050827   0.296339  -0.071390   5.410378   0.302248
     6  C    0.014162  -0.005139  -0.052055   0.008745   0.302248   5.008676
     7  C    0.021006  -0.005878  -0.061485   0.004302   0.297305  -0.073781
     8  C    0.288432  -0.046753  -0.006629  -0.000829   0.020530  -0.005622
     9  C    0.306944  -0.064539  -0.011352  -0.001171   0.022157   0.008070
    10  N    0.197731  -0.079048  -0.003446   0.008402   0.176232  -0.123490
    11  O   -0.095436   0.008858   0.020641  -0.002831  -0.102715  -0.005782
    12  H   -0.076027   0.425211  -0.030814  -0.004721   0.018136  -0.001379
    13  H    0.002824   0.012007  -0.067966   0.433112   0.000703  -0.000504
    14  H   -0.001032   0.000699  -0.053846   0.423008  -0.006324   0.001638
    15  H   -0.001733   0.001887  -0.004396   0.003850  -0.053912   0.422526
    16  H    0.002848  -0.001072   0.010791  -0.001731  -0.048504   0.434226
    17  H    0.000489   0.000206   0.008168  -0.000739  -0.054243   0.428051
    18  H   -0.002765   0.003087  -0.001820   0.002610  -0.057956  -0.000014
    19  H    0.006456  -0.001877   0.000052   0.000323  -0.063119   0.010646
    20  H    0.002086  -0.001226   0.010003  -0.001190  -0.044817  -0.006241
    21  H   -0.060214  -0.006294   0.002707  -0.000496   0.002860  -0.000004
    22  H   -0.033156   0.007847  -0.000859   0.000026   0.002842  -0.000012
    23  H   -0.064489   0.023039   0.003639   0.000063  -0.003718   0.000263
    24  H   -0.054462  -0.003158   0.004977  -0.000509  -0.002288  -0.001161
    25  H   -0.063727   0.010853   0.004387  -0.000140  -0.002266  -0.000061
    26  H   -0.035997   0.009976  -0.000470   0.000065   0.001167   0.000361
    27  H    0.000799   0.002690  -0.046525   0.412571   0.003467   0.002053
               7          8          9         10         11         12
     1  C    0.021006   0.288432   0.306944   0.197731  -0.095436  -0.076027
     2  C   -0.005878  -0.046753  -0.064539  -0.079048   0.008858   0.425211
     3  C   -0.061485  -0.006629  -0.011352  -0.003446   0.020641  -0.030814
     4  C    0.004302  -0.000829  -0.001171   0.008402  -0.002831  -0.004721
     5  C    0.297305   0.020530   0.022157   0.176232  -0.102715   0.018136
     6  C   -0.073781  -0.005622   0.008070  -0.123490  -0.005782  -0.001379
     7  C    4.981419   0.003354  -0.006075  -0.084622  -0.002368  -0.001349
     8  C    0.003354   5.003538  -0.071544  -0.085976  -0.001825   0.004567
     9  C   -0.006075  -0.071544   5.001621  -0.114125  -0.002630   0.004054
    10  N   -0.084622  -0.085976  -0.114125   7.124348  -0.005630   0.001747
    11  O   -0.002368  -0.001825  -0.002630  -0.005630   8.699016  -0.000718
    12  H   -0.001349   0.004567   0.004054   0.001747  -0.000718   0.497553
    13  H    0.000603   0.000117  -0.000140  -0.002776   0.000087   0.001123
    14  H    0.004325   0.000231  -0.000058   0.001889  -0.000034   0.000084
    15  H    0.000678   0.000125   0.000027   0.009787  -0.000726   0.000001
    16  H   -0.004441  -0.000087   0.000071  -0.019391   0.008746   0.000009
    17  H    0.009653  -0.000102  -0.000704  -0.008570  -0.000761  -0.000017
    18  H    0.422759   0.000055   0.000255   0.009170  -0.001646   0.000002
    19  H    0.429131  -0.000545  -0.000203  -0.005238   0.001975  -0.000034
    20  H    0.433025  -0.000387   0.000094  -0.018769   0.010654   0.000008
    21  H   -0.001072   0.429002   0.009796   0.001283   0.001086   0.000015
    22  H   -0.000266   0.429349  -0.002847  -0.027233   0.010391  -0.000047
    23  H    0.000038   0.421553  -0.001736  -0.002938  -0.001120   0.000468
    24  H    0.000078   0.009731   0.425729  -0.000971  -0.000085   0.000019
    25  H    0.000140  -0.001276   0.424613   0.002248  -0.000541   0.000623
    26  H   -0.000045  -0.003815   0.430508  -0.026445   0.009712  -0.000078
    27  H   -0.000605  -0.000131   0.000388  -0.002645   0.000087   0.000261
              13         14         15         16         17         18
     1  C    0.002824  -0.001032  -0.001733   0.002848   0.000489  -0.002765
     2  C    0.012007   0.000699   0.001887  -0.001072   0.000206   0.003087
     3  C   -0.067966  -0.053846  -0.004396   0.010791   0.008168  -0.001820
     4  C    0.433112   0.423008   0.003850  -0.001731  -0.000739   0.002610
     5  C    0.000703  -0.006324  -0.053912  -0.048504  -0.054243  -0.057956
     6  C   -0.000504   0.001638   0.422526   0.434226   0.428051  -0.000014
     7  C    0.000603   0.004325   0.000678  -0.004441   0.009653   0.422759
     8  C    0.000117   0.000231   0.000125  -0.000087  -0.000102   0.000055
     9  C   -0.000140  -0.000058   0.000027   0.000071  -0.000704   0.000255
    10  N   -0.002776   0.001889   0.009787  -0.019391  -0.008570   0.009170
    11  O    0.000087  -0.000034  -0.000726   0.008746  -0.000761  -0.001646
    12  H    0.001123   0.000084   0.000001   0.000009  -0.000017   0.000002
    13  H    0.519667  -0.025575   0.000008   0.000001  -0.000010  -0.000125
    14  H   -0.025575   0.551420  -0.000051  -0.000040   0.000013   0.001300
    15  H    0.000008  -0.000051   0.544374  -0.026169  -0.023946   0.001214
    16  H    0.000001  -0.000040  -0.026169   0.509661  -0.019486  -0.000426
    17  H   -0.000010   0.000013  -0.023946  -0.019486   0.535439  -0.000011
    18  H   -0.000125   0.001300   0.001214  -0.000426  -0.000011   0.551928
    19  H   -0.000107   0.000047  -0.000078   0.000118  -0.000270  -0.023497
    20  H    0.000005  -0.000078  -0.000319   0.003498   0.000189  -0.025026
    21  H   -0.000005  -0.000000  -0.000000  -0.000000  -0.000001   0.000002
    22  H   -0.000000  -0.000000   0.000000  -0.000003  -0.000003  -0.000000
    23  H   -0.000001   0.000000  -0.000000   0.000000  -0.000000  -0.000000
    24  H   -0.000000  -0.000001   0.000007  -0.000031  -0.000452  -0.000001
    25  H   -0.000001   0.000000  -0.000001  -0.000001  -0.000007  -0.000000
    26  H    0.000000  -0.000000  -0.000001  -0.000033  -0.000075   0.000000
    27  H   -0.021958  -0.028104  -0.000160   0.000008   0.000031   0.000007
              19         20         21         22         23         24
     1  C    0.006456   0.002086  -0.060214  -0.033156  -0.064489  -0.054462
     2  C   -0.001877  -0.001226  -0.006294   0.007847   0.023039  -0.003158
     3  C    0.000052   0.010003   0.002707  -0.000859   0.003639   0.004977
     4  C    0.000323  -0.001190  -0.000496   0.000026   0.000063  -0.000509
     5  C   -0.063119  -0.044817   0.002860   0.002842  -0.003718  -0.002288
     6  C    0.010646  -0.006241  -0.000004  -0.000012   0.000263  -0.001161
     7  C    0.429131   0.433025  -0.001072  -0.000266   0.000038   0.000078
     8  C   -0.000545  -0.000387   0.429002   0.429349   0.421553   0.009731
     9  C   -0.000203   0.000094   0.009796  -0.002847  -0.001736   0.425729
    10  N   -0.005238  -0.018769   0.001283  -0.027233  -0.002938  -0.000971
    11  O    0.001975   0.010654   0.001086   0.010391  -0.001120  -0.000085
    12  H   -0.000034   0.000008   0.000015  -0.000047   0.000468   0.000019
    13  H   -0.000107   0.000005  -0.000005  -0.000000  -0.000001  -0.000000
    14  H    0.000047  -0.000078  -0.000000  -0.000000   0.000000  -0.000001
    15  H   -0.000078  -0.000319  -0.000000   0.000000  -0.000000   0.000007
    16  H    0.000118   0.003498  -0.000000  -0.000003   0.000000  -0.000031
    17  H   -0.000270   0.000189  -0.000001  -0.000003  -0.000000  -0.000452
    18  H   -0.023497  -0.025026   0.000002  -0.000000  -0.000000  -0.000001
    19  H    0.533482  -0.017974   0.000116  -0.000049   0.000004  -0.000001
    20  H   -0.017974   0.506452  -0.000007  -0.000010  -0.000000  -0.000002
    21  H    0.000116  -0.000007   0.536658  -0.020267  -0.026217  -0.000239
    22  H   -0.000049  -0.000010  -0.020267   0.501115  -0.024635  -0.000037
    23  H    0.000004  -0.000000  -0.026217  -0.024635   0.547163   0.000134
    24  H   -0.000001  -0.000002  -0.000239  -0.000037   0.000134   0.540709
    25  H    0.000000   0.000000  -0.000052  -0.000171   0.001575  -0.023114
    26  H   -0.000001  -0.000004  -0.000004   0.002301  -0.000330  -0.020370
    27  H    0.000003  -0.000001   0.000000   0.000000  -0.000000   0.000004
              25         26         27
     1  C   -0.063727  -0.035997   0.000799
     2  C    0.010853   0.009976   0.002690
     3  C    0.004387  -0.000470  -0.046525
     4  C   -0.000140   0.000065   0.412571
     5  C   -0.002266   0.001167   0.003467
     6  C   -0.000061   0.000361   0.002053
     7  C    0.000140  -0.000045  -0.000605
     8  C   -0.001276  -0.003815  -0.000131
     9  C    0.424613   0.430508   0.000388
    10  N    0.002248  -0.026445  -0.002645
    11  O   -0.000541   0.009712   0.000087
    12  H    0.000623  -0.000078   0.000261
    13  H   -0.000001   0.000000  -0.021958
    14  H    0.000000  -0.000000  -0.028104
    15  H   -0.000001  -0.000001  -0.000160
    16  H   -0.000001  -0.000033   0.000008
    17  H   -0.000007  -0.000075   0.000031
    18  H   -0.000000   0.000000   0.000007
    19  H    0.000000  -0.000001   0.000003
    20  H    0.000000  -0.000004  -0.000001
    21  H   -0.000052  -0.000004   0.000000
    22  H   -0.000171   0.002301   0.000000
    23  H    0.001575  -0.000330  -0.000000
    24  H   -0.023114  -0.020370   0.000004
    25  H    0.544573  -0.024199   0.000001
    26  H   -0.024199   0.502860  -0.000001
    27  H    0.000001  -0.000001   0.543265
          Atomic-Atomic Spin Densities.
               1          2          3          4          5          6
     1  C   -0.043228   0.004154  -0.001994  -0.000023   0.002029  -0.002071
     2  C    0.004154   0.000396   0.001909  -0.000390  -0.000523   0.001816
     3  C   -0.001994   0.001909  -0.001855   0.000835   0.003606   0.003084
     4  C   -0.000023  -0.000390   0.000835  -0.001904  -0.000066  -0.000235
     5  C    0.002029  -0.000523   0.003606  -0.000066  -0.044153  -0.002837
     6  C   -0.002071   0.001816   0.003084  -0.000235  -0.002837   0.069546
     7  C    0.002529  -0.000357  -0.002855   0.000355   0.000765  -0.017647
     8  C   -0.000038   0.000981  -0.000668   0.000043   0.001334  -0.001939
     9  C   -0.005309   0.002827   0.000336  -0.000121   0.000321   0.005530
    10  N    0.002209  -0.011654  -0.003202   0.000940  -0.005834  -0.042562
    11  O    0.006654   0.001769  -0.002651  -0.000011   0.009997   0.018599
    12  H   -0.000253   0.000140   0.000309  -0.000074  -0.000015  -0.000035
    13  H    0.000016   0.000051  -0.000123   0.000067   0.000063   0.000042
    14  H   -0.000020   0.000017  -0.000009   0.000005  -0.000010  -0.000021
    15  H   -0.000049  -0.000135  -0.000107   0.000010   0.000276  -0.002921
    16  H    0.000022  -0.000015  -0.000002  -0.000006   0.000471   0.000021
    17  H    0.000089  -0.000126   0.000011  -0.000000  -0.000006  -0.001353
    18  H   -0.000096   0.000028   0.000567  -0.000062   0.000134   0.001134
    19  H   -0.000068  -0.000150   0.000028   0.000023  -0.000056   0.000235
    20  H    0.000003   0.000002  -0.000096   0.000000   0.000827  -0.000355
    21  H    0.000347  -0.000213  -0.000049   0.000006  -0.000073   0.000039
    22  H    0.000886  -0.000162  -0.000009  -0.000000   0.000063  -0.000035
    23  H    0.000413   0.000043   0.000019   0.000001  -0.000042   0.000053
    24  H    0.000182  -0.000085  -0.000044   0.000003   0.000030  -0.000152
    25  H    0.000014   0.000272   0.000147   0.000007  -0.000224  -0.000157
    26  H    0.000612  -0.000155  -0.000020  -0.000001   0.000122   0.000109
    27  H   -0.000064  -0.000070   0.000041   0.000121  -0.000130  -0.000106
               7          8          9         10         11         12
     1  C    0.002529  -0.000038  -0.005309   0.002209   0.006654  -0.000253
     2  C   -0.000357   0.000981   0.002827  -0.011654   0.001769   0.000140
     3  C   -0.002855  -0.000668   0.000336  -0.003202  -0.002651   0.000309
     4  C    0.000355   0.000043  -0.000121   0.000940  -0.000011  -0.000074
     5  C    0.000765   0.001334   0.000321  -0.005834   0.009997  -0.000015
     6  C   -0.017647  -0.001939   0.005530  -0.042562   0.018599  -0.000035
     7  C    0.066373   0.002872  -0.002132  -0.033131   0.010757   0.000014
     8  C    0.002872   0.060491  -0.016791  -0.029273   0.008760   0.000200
     9  C   -0.002132  -0.016791   0.069515  -0.040855   0.017359  -0.000095
    10  N   -0.033131  -0.029273  -0.040855   1.049224  -0.387437   0.000410
    11  O    0.010757   0.008760   0.017359  -0.387437   0.785476  -0.000048
    12  H    0.000014   0.000200  -0.000095   0.000410  -0.000048  -0.001189
    13  H   -0.000114  -0.000022   0.000025  -0.000023  -0.000001   0.000007
    14  H    0.000026   0.000003  -0.000001   0.000027  -0.000003   0.000001
    15  H    0.000780   0.000028  -0.000149   0.002959  -0.001247   0.000000
    16  H   -0.000296  -0.000011   0.000044  -0.000517   0.001008  -0.000000
    17  H    0.000011   0.000008  -0.000099   0.001260   0.000004  -0.000001
    18  H   -0.004717  -0.000078   0.000053   0.002119  -0.000667  -0.000000
    19  H   -0.003031  -0.000153   0.000046   0.003468  -0.001057  -0.000000
    20  H    0.000290   0.000030  -0.000018  -0.000681   0.000473   0.000000
    21  H   -0.000150  -0.002413   0.000189   0.002673  -0.000762  -0.000008
    22  H    0.000064   0.000676  -0.000490  -0.001418   0.001010   0.000003
    23  H   -0.000086  -0.004256   0.001141   0.001884  -0.000587  -0.000047
    24  H    0.000012   0.000056  -0.001538   0.001595  -0.000328   0.000002
    25  H    0.000039   0.001034  -0.003243   0.002743  -0.001126  -0.000022
    26  H   -0.000031  -0.000549   0.000580  -0.001527   0.001732  -0.000000
    27  H    0.000057   0.000010  -0.000019   0.000170  -0.000013   0.000007
              13         14         15         16         17         18
     1  C    0.000016  -0.000020  -0.000049   0.000022   0.000089  -0.000096
     2  C    0.000051   0.000017  -0.000135  -0.000015  -0.000126   0.000028
     3  C   -0.000123  -0.000009  -0.000107  -0.000002   0.000011   0.000567
     4  C    0.000067   0.000005   0.000010  -0.000006  -0.000000  -0.000062
     5  C    0.000063  -0.000010   0.000276   0.000471  -0.000006   0.000134
     6  C    0.000042  -0.000021  -0.002921   0.000021  -0.001353   0.001134
     7  C   -0.000114   0.000026   0.000780  -0.000296   0.000011  -0.004717
     8  C   -0.000022   0.000003   0.000028  -0.000011   0.000008  -0.000078
     9  C    0.000025  -0.000001  -0.000149   0.000044  -0.000099   0.000053
    10  N   -0.000023   0.000027   0.002959  -0.000517   0.001260   0.002119
    11  O   -0.000001  -0.000003  -0.001247   0.001008   0.000004  -0.000667
    12  H    0.000007   0.000001   0.000000  -0.000000  -0.000001  -0.000000
    13  H    0.000196  -0.000024  -0.000002   0.000000   0.000000   0.000013
    14  H   -0.000024   0.000018   0.000004   0.000000   0.000000  -0.000013
    15  H   -0.000002   0.000004   0.000591  -0.000053   0.000204  -0.000132
    16  H    0.000000   0.000000  -0.000053  -0.001621  -0.000015   0.000021
    17  H    0.000000   0.000000   0.000204  -0.000015  -0.001404  -0.000001
    18  H    0.000013  -0.000013  -0.000132   0.000021  -0.000001   0.001830
    19  H    0.000002  -0.000001  -0.000006   0.000006   0.000000   0.000481
    20  H   -0.000000   0.000001   0.000025   0.000001   0.000004  -0.000133
    21  H    0.000000  -0.000000  -0.000000   0.000000   0.000000   0.000000
    22  H   -0.000000   0.000000   0.000000   0.000000   0.000000  -0.000000
    23  H    0.000000  -0.000000  -0.000000   0.000000  -0.000000   0.000000
    24  H   -0.000000  -0.000000  -0.000000  -0.000002  -0.000005  -0.000000
    25  H   -0.000000   0.000000   0.000000  -0.000000   0.000000  -0.000000
    26  H    0.000000  -0.000000  -0.000000   0.000000  -0.000002   0.000000
    27  H   -0.000108   0.000016   0.000026  -0.000000   0.000001  -0.000007
              19         20         21         22         23         24
     1  C   -0.000068   0.000003   0.000347   0.000886   0.000413   0.000182
     2  C   -0.000150   0.000002  -0.000213  -0.000162   0.000043  -0.000085
     3  C    0.000028  -0.000096  -0.000049  -0.000009   0.000019  -0.000044
     4  C    0.000023   0.000000   0.000006  -0.000000   0.000001   0.000003
     5  C   -0.000056   0.000827  -0.000073   0.000063  -0.000042   0.000030
     6  C    0.000235  -0.000355   0.000039  -0.000035   0.000053  -0.000152
     7  C   -0.003031   0.000290  -0.000150   0.000064  -0.000086   0.000012
     8  C   -0.000153   0.000030  -0.002413   0.000676  -0.004256   0.000056
     9  C    0.000046  -0.000018   0.000189  -0.000490   0.001141  -0.001538
    10  N    0.003468  -0.000681   0.002673  -0.001418   0.001884   0.001595
    11  O   -0.001057   0.000473  -0.000762   0.001010  -0.000587  -0.000328
    12  H   -0.000000   0.000000  -0.000008   0.000003  -0.000047   0.000002
    13  H    0.000002  -0.000000   0.000000  -0.000000   0.000000  -0.000000
    14  H   -0.000001   0.000001  -0.000000   0.000000  -0.000000  -0.000000
    15  H   -0.000006   0.000025  -0.000000   0.000000  -0.000000  -0.000000
    16  H    0.000006   0.000001   0.000000   0.000000   0.000000  -0.000002
    17  H    0.000000   0.000004   0.000000   0.000000  -0.000000  -0.000005
    18  H    0.000481  -0.000133   0.000000  -0.000000   0.000000  -0.000000
    19  H   -0.000673  -0.000029   0.000004  -0.000002   0.000000   0.000000
    20  H   -0.000029  -0.001303  -0.000000   0.000000  -0.000000   0.000000
    21  H    0.000004  -0.000000  -0.000707  -0.000124   0.000387   0.000000
    22  H   -0.000002   0.000000  -0.000124  -0.001153  -0.000284   0.000004
    23  H    0.000000  -0.000000   0.000387  -0.000284   0.002240  -0.000004
    24  H    0.000000   0.000000   0.000000   0.000004  -0.000004  -0.001233
    25  H   -0.000000   0.000000  -0.000009   0.000036  -0.000216   0.000205
    26  H    0.000000  -0.000000   0.000008  -0.000021   0.000052  -0.000036
    27  H   -0.000001   0.000000  -0.000000   0.000000  -0.000000   0.000000
              25         26         27
     1  C    0.000014   0.000612  -0.000064
     2  C    0.000272  -0.000155  -0.000070
     3  C    0.000147  -0.000020   0.000041
     4  C    0.000007  -0.000001   0.000121
     5  C   -0.000224   0.000122  -0.000130
     6  C   -0.000157   0.000109  -0.000106
     7  C    0.000039  -0.000031   0.000057
     8  C    0.001034  -0.000549   0.000010
     9  C   -0.003243   0.000580  -0.000019
    10  N    0.002743  -0.001527   0.000170
    11  O   -0.001126   0.001732  -0.000013
    12  H   -0.000022  -0.000000   0.000007
    13  H   -0.000000   0.000000  -0.000108
    14  H    0.000000  -0.000000   0.000016
    15  H    0.000000  -0.000000   0.000026
    16  H   -0.000000   0.000000  -0.000000
    17  H    0.000000  -0.000002   0.000001
    18  H   -0.000000   0.000000  -0.000007
    19  H   -0.000000   0.000000  -0.000001
    20  H    0.000000  -0.000000   0.000000
    21  H   -0.000009   0.000008  -0.000000
    22  H    0.000036  -0.000021   0.000000
    23  H   -0.000216   0.000052  -0.000000
    24  H    0.000205  -0.000036   0.000000
    25  H    0.001412  -0.000305   0.000000
    26  H   -0.000305  -0.001527  -0.000000
    27  H    0.000000  -0.000000   0.000188
 Mulliken charges and spin densities:
               1          2
     1  C    0.240494  -0.033055
     2  C   -0.298468   0.000371
     3  C   -0.014900  -0.002791
     4  C   -0.394622  -0.000478
     5  C    0.206277  -0.033928
     6  C   -0.366420   0.027784
     7  C   -0.365830   0.020396
     8  C   -0.385061   0.020333
     9  C   -0.357202   0.027105
    10  N    0.078476   0.513565
    11  O   -0.546405   0.467660
    12  H    0.161305  -0.000696
    13  H    0.148910   0.000065
    14  H    0.130491   0.000017
    15  H    0.127008   0.000102
    16  H    0.151439  -0.000943
    17  H    0.127159  -0.001420
    18  H    0.120900   0.000475
    19  H    0.130640  -0.000931
    20  H    0.150036  -0.000961
    21  H    0.131348  -0.000854
    22  H    0.155725  -0.000957
    23  H    0.127248   0.000712
    24  H    0.125495  -0.001340
    25  H    0.126544   0.000607
    26  H    0.154918  -0.000959
    27  H    0.134495   0.000120
 Sum of Mulliken charges =  -0.00000   1.00000
 Mulliken charges and spin densities with hydrogens summed into heavy atoms:
               1          2
     1  C    0.240494  -0.033055
     2  C   -0.137163  -0.000325
     3  C   -0.014900  -0.002791
     4  C    0.019274  -0.000276
     5  C    0.206277  -0.033928
     6  C    0.039185   0.025523
     7  C    0.035747   0.018980
     8  C    0.029260   0.019235
     9  C    0.049755   0.025413
    10  N    0.078476   0.513565
    11  O   -0.546405   0.467660
 Electronic spatial extent (au):  <R**2>=           1646.1645
 Charge=              0.0000 electrons
 Dipole moment (field-independent basis, Debye):
    X=              1.6352    Y=              3.2008    Z=              0.1769  Tot=              3.5986
 Quadrupole moment (field-independent basis, Debye-Ang):
   XX=            -63.1817   YY=            -71.5141   ZZ=            -67.0930
   XY=             -4.0165   XZ=             -0.0196   YZ=             -0.4477
 Traceless Quadrupole moment (field-independent basis, Debye-Ang):
   XX=              4.0812   YY=             -4.2512   ZZ=              0.1699
   XY=             -4.0165   XZ=             -0.0196   YZ=             -0.4477
 Octapole moment (field-independent basis, Debye-Ang**2):
  XXX=             -1.0573  YYY=             13.1935  ZZZ=             -0.7378  XYY=              8.5597
  XXY=              4.6784  XXZ=             -0.5296  XZZ=             -1.3155  YZZ=             -4.1100
  YYZ=              1.1281  XYZ=              0.9580
 Hexadecapole moment (field-independent basis, Debye-Ang**3):
 XXXX=          -1094.3621 YYYY=           -675.2666 ZZZZ=           -393.3793 XXXY=              2.6022
 XXXZ=              2.8704 YYYX=            -13.1793 YYYZ=             -1.3049 ZZZX=              2.8054
 ZZZY=             -0.7169 XXYY=           -294.8776 XXZZ=           -251.2830 YYZZ=           -180.0103
 XXYZ=              1.6950 YYXZ=             -0.4739 ZZXY=              1.8105
 N-N= 6.935138896707D+02 E-N=-2.509326040201D+03  KE= 4.819526227371D+02
                          Isotropic Fermi Contact Couplings
        Atom                 a.u.       MegaHertz       Gauss      10(-4) cm-1
     1  C(13)             -0.01564     -17.57942      -6.27278      -5.86386
     2  C(13)             -0.00045      -0.50184      -0.17907      -0.16740
     3  C(13)             -0.00072      -0.81282      -0.29003      -0.27113
     4  C(13)             -0.00054      -0.60565      -0.21611      -0.20202
     5  C(13)             -0.01530     -17.19485      -6.13555      -5.73558
     6  C(13)              0.01378      15.48945       5.52702       5.16672
     7  C(13)              0.01508      16.95798       6.05103       5.65657
     8  C(13)              0.01495      16.80521       5.99652       5.60561
     9  C(13)              0.01323      14.87000       5.30598       4.96010
    10  N(14)              0.10652      34.41670      12.28073      11.48018
    11  O(17)              0.08483     -51.42408     -18.34939     -17.15323
    12  H(1)              -0.00029      -1.29756      -0.46300      -0.43282
    13  H(1)               0.00003       0.14221       0.05075       0.04744
    14  H(1)               0.00000       0.01619       0.00578       0.00540
    15  H(1)               0.00013       0.58350       0.20821       0.19463
    16  H(1)              -0.00043      -1.94144      -0.69275      -0.64760
    17  H(1)              -0.00035      -1.54788      -0.55232      -0.51632
    18  H(1)              -0.00005      -0.20122      -0.07180      -0.06712
    19  H(1)              -0.00035      -1.56850      -0.55968      -0.52319
    20  H(1)              -0.00043      -1.91820      -0.68446      -0.63984
    21  H(1)              -0.00036      -1.61314      -0.57561      -0.53808
    22  H(1)              -0.00047      -2.08499      -0.74398      -0.69548
    23  H(1)               0.00015       0.68718       0.24520       0.22922
    24  H(1)              -0.00033      -1.46191      -0.52165      -0.48764
    25  H(1)               0.00030       1.32831       0.47398       0.44308
    26  H(1)              -0.00054      -2.40472      -0.85806      -0.80213
    27  H(1)               0.00004       0.19208       0.06854       0.06407
 --------------------------------------------------------
       Center         ----  Spin Dipole Couplings  ----
                      3XX-RR        3YY-RR        3ZZ-RR
 --------------------------------------------------------
     1   Atom       -0.000961      0.007122     -0.006161
     2   Atom       -0.007720      0.012046     -0.004325
     3   Atom        0.000081      0.005607     -0.005689
     4   Atom        0.000514      0.000971     -0.001486
     5   Atom        0.014572     -0.008543     -0.006029
     6   Atom        0.000851     -0.006757      0.005906
     7   Atom        0.009904     -0.010138      0.000234
     8   Atom        0.009709     -0.010715      0.001006
     9   Atom        0.005668     -0.015038      0.009370
    10   Atom       -0.639307     -0.630079      1.269386
    11   Atom       -0.979621     -1.028280      2.007902
    12   Atom       -0.003157      0.005859     -0.002702
    13   Atom        0.000011      0.001320     -0.001331
    14   Atom        0.001544      0.000051     -0.001595
    15   Atom        0.005721     -0.003450     -0.002272
    16   Atom        0.005498     -0.001810     -0.003688
    17   Atom       -0.000167     -0.007849      0.008016
    18   Atom        0.006732     -0.003686     -0.003046
    19   Atom        0.002411     -0.006870      0.004460
    20   Atom        0.006273     -0.001998     -0.004275
    21   Atom       -0.002683     -0.000165      0.002848
    22   Atom        0.005613     -0.001937     -0.003676
    23   Atom        0.001262      0.001515     -0.002777
    24   Atom       -0.004618     -0.003169      0.007787
    25   Atom       -0.000336      0.002488     -0.002153
    26   Atom        0.005144     -0.002330     -0.002814
    27   Atom        0.000504      0.000626     -0.001130
 --------------------------------------------------------
                        XY            XZ            YZ
 --------------------------------------------------------
     1   Atom       -0.012201     -0.001216      0.001488
     2   Atom        0.002506     -0.000083      0.000674
     3   Atom        0.009899      0.000572      0.000374
     4   Atom        0.002407      0.000166      0.000122
     5   Atom        0.004878      0.000739      0.000151
     6   Atom       -0.011512      0.022326     -0.018452
     7   Atom       -0.010962     -0.021600      0.011471
     8   Atom       -0.009826      0.022707     -0.006889
     9   Atom       -0.004027     -0.028930      0.003219
    10   Atom        0.003772      0.020563     -0.031284
    11   Atom       -0.022428      0.037952     -0.013683
    12   Atom        0.000358     -0.000060      0.000612
    13   Atom        0.001895     -0.000127     -0.000120
    14   Atom        0.002353     -0.000110     -0.000110
    15   Atom        0.001572      0.004860     -0.000701
    16   Atom       -0.004196      0.008007     -0.002504
    17   Atom        0.000431      0.008271      0.000149
    18   Atom        0.001327     -0.002600      0.000584
    19   Atom        0.001077     -0.007845     -0.001705
    20   Atom       -0.003911     -0.006489      0.002298
    21   Atom       -0.004111      0.003478     -0.006481
    22   Atom       -0.004214      0.007310     -0.002632
    23   Atom       -0.005537      0.001693     -0.000683
    24   Atom       -0.003532     -0.004242      0.006295
    25   Atom       -0.004912     -0.003722      0.002396
    26   Atom       -0.003372     -0.008476      0.003804
    27   Atom        0.001862      0.000666      0.000677
 --------------------------------------------------------


 ---------------------------------------------------------------------------------
              Anisotropic Spin Dipole Couplings in Principal Axis System
 ---------------------------------------------------------------------------------

       Atom             a.u.   MegaHertz   Gauss  10(-4) cm-1        Axes

              Baa    -0.0098    -1.312    -0.468    -0.438  0.8117  0.5831  0.0331
     1 C(13)  Bbb    -0.0063    -0.848    -0.303    -0.283  0.0234 -0.0890  0.9958
              Bcc     0.0161     2.160     0.771     0.721 -0.5836  0.8075  0.0859
 
              Baa    -0.0080    -1.079    -0.385    -0.360  0.9911 -0.1252  0.0449
     2 C(13)  Bbb    -0.0043    -0.583    -0.208    -0.194 -0.0494 -0.0335  0.9982
              Bcc     0.0124     1.662     0.593     0.554  0.1235  0.9916  0.0394
 
              Baa    -0.0075    -1.001    -0.357    -0.334  0.7922 -0.5963 -0.1300
     3 C(13)  Bbb    -0.0057    -0.762    -0.272    -0.254  0.0831 -0.1057  0.9909
              Bcc     0.0131     1.764     0.629     0.588  0.6046  0.7958  0.0342
 
              Baa    -0.0017    -0.226    -0.081    -0.075  0.7290 -0.6512 -0.2107
     4 C(13)  Bbb    -0.0015    -0.199    -0.071    -0.066  0.1274 -0.1733  0.9766
              Bcc     0.0032     0.425     0.152     0.142  0.6725  0.7388  0.0434
 
              Baa    -0.0095    -1.279    -0.456    -0.427 -0.1984  0.9801 -0.0005
     5 C(13)  Bbb    -0.0061    -0.813    -0.290    -0.271 -0.0343 -0.0064  0.9994
              Bcc     0.0156     2.091     0.746     0.698  0.9795  0.1982  0.0349
 
              Baa    -0.0217    -2.911    -1.039    -0.971 -0.4237  0.5564  0.7148
     6 C(13)  Bbb    -0.0148    -1.990    -0.710    -0.664  0.7008  0.7013 -0.1305
              Bcc     0.0365     4.901     1.749     1.635  0.5739 -0.4456  0.6871
 
              Baa    -0.0185    -2.488    -0.888    -0.830  0.3508 -0.5635  0.7479
     7 C(13)  Bbb    -0.0144    -1.934    -0.690    -0.645  0.5940  0.7514  0.2874
              Bcc     0.0330     4.422     1.578     1.475  0.7240 -0.3434 -0.5983
 
              Baa    -0.0180    -2.413    -0.861    -0.805 -0.6642 -0.2212  0.7141
     8 C(13)  Bbb    -0.0139    -1.860    -0.664    -0.621  0.0586  0.9369  0.3446
              Bcc     0.0318     4.273     1.525     1.425  0.7453 -0.2707  0.6093
 
              Baa    -0.0216    -2.893    -1.032    -0.965  0.7312  0.1201  0.6715
     9 C(13)  Bbb    -0.0154    -2.073    -0.740    -0.692 -0.0216  0.9880 -0.1533
              Bcc     0.0370     4.966     1.772     1.657 -0.6818  0.0976  0.7250
 
              Baa    -0.6411   -24.727    -8.823    -8.248  0.9316 -0.3632 -0.0160
    10 N(14)  Bbb    -0.6290   -24.259    -8.656    -8.092  0.3634  0.9316  0.0114
              Bcc     1.2701    48.986    17.479    16.340  0.0107 -0.0164  0.9998
 
              Baa    -1.0370    75.040    26.776    25.031  0.3640  0.9314 -0.0004
    11 O(17)  Bbb    -0.9714    70.290    25.081    23.446  0.9313 -0.3640 -0.0135
              Bcc     2.0084  -145.330   -51.857   -48.477  0.0127 -0.0046  0.9999
 
              Baa    -0.0032    -1.700    -0.607    -0.567  0.9814 -0.0513  0.1852
    12 H(1)   Bbb    -0.0027    -1.456    -0.520    -0.486 -0.1883 -0.0620  0.9802
              Bcc     0.0059     3.156     1.126     1.053  0.0388  0.9968  0.0705
 
              Baa    -0.0014    -0.732    -0.261    -0.244  0.5992 -0.3904  0.6990
    13 H(1)   Bbb    -0.0013    -0.696    -0.248    -0.232 -0.5519  0.4311  0.7139
              Bcc     0.0027     1.429     0.510     0.477  0.5800  0.8135 -0.0428
 
              Baa    -0.0017    -0.895    -0.320    -0.299 -0.5586  0.7783  0.2867
    14 H(1)   Bbb    -0.0016    -0.850    -0.303    -0.283  0.1939 -0.2135  0.9575
              Bcc     0.0033     1.745     0.623     0.582  0.8064  0.5905 -0.0316
 
              Baa    -0.0055    -2.912    -1.039    -0.971 -0.3949  0.5627  0.7262
    15 H(1)   Bbb    -0.0027    -1.424    -0.508    -0.475  0.1632  0.8209 -0.5473
              Bcc     0.0081     4.336     1.547     1.446  0.9041  0.0976  0.4160
 
              Baa    -0.0083    -4.443    -1.585    -1.482 -0.4984  0.0121  0.8669
    16 H(1)   Bbb    -0.0036    -1.896    -0.677    -0.632  0.2971  0.9417  0.1577
              Bcc     0.0119     6.339     2.262     2.114  0.8144 -0.3361  0.4730
 
              Baa    -0.0079    -4.208    -1.502    -1.404 -0.1028  0.9937  0.0442
    17 H(1)   Bbb    -0.0053    -2.813    -1.004    -0.938  0.8432  0.1106 -0.5261
              Bcc     0.0132     7.021     2.505     2.342  0.5277  0.0168  0.8493
 
              Baa    -0.0046    -2.472    -0.882    -0.825 -0.2328  0.7252 -0.6480
    18 H(1)   Bbb    -0.0029    -1.529    -0.545    -0.510  0.1023  0.6809  0.7252
              Bcc     0.0075     4.001     1.428     1.335  0.9671  0.1026 -0.2327
 
              Baa    -0.0071    -3.800    -1.356    -1.268  0.0182  0.9873  0.1577
    19 H(1)   Bbb    -0.0044    -2.368    -0.845    -0.790  0.7560 -0.1168  0.6441
              Bcc     0.0116     6.169     2.201     2.058 -0.6543 -0.1075  0.7485
 
              Baa    -0.0074    -3.949    -1.409    -1.317  0.4048 -0.0938  0.9096
    20 H(1)   Bbb    -0.0035    -1.889    -0.674    -0.630  0.3387  0.9393 -0.0539
              Bcc     0.0109     5.837     2.083     1.947  0.8493 -0.3299 -0.4121
 
              Baa    -0.0061    -3.251    -1.160    -1.084  0.5800  0.7500  0.3180
    21 H(1)   Bbb    -0.0041    -2.179    -0.777    -0.727  0.7197 -0.2889 -0.6313
              Bcc     0.0102     5.429     1.937     1.811  0.3816 -0.5950  0.7073
 
              Baa    -0.0077    -4.114    -1.468    -1.372 -0.4645  0.0637  0.8833
    22 H(1)   Bbb    -0.0038    -2.004    -0.715    -0.668  0.3357  0.9356  0.1091
              Bcc     0.0115     6.118     2.183     2.041  0.8195 -0.3472  0.4560
 
              Baa    -0.0045    -2.407    -0.859    -0.803  0.6853  0.5798 -0.4407
    23 H(1)   Bbb    -0.0027    -1.439    -0.514    -0.480  0.2112  0.4209  0.8822
              Bcc     0.0072     3.846     1.372     1.283 -0.6969  0.6977 -0.1659
 
              Baa    -0.0076    -4.035    -1.440    -1.346  0.7080  0.7002 -0.0915
    24 H(1)   Bbb    -0.0048    -2.547    -0.909    -0.850  0.6386 -0.5796  0.5062
              Bcc     0.0123     6.582     2.349     2.196 -0.3014  0.4168  0.8576
 
              Baa    -0.0054    -2.872    -1.025    -0.958  0.7222  0.2549  0.6430
    25 H(1)   Bbb    -0.0025    -1.360    -0.485    -0.454 -0.3552 -0.6609  0.6610
              Bcc     0.0079     4.232     1.510     1.412 -0.5935  0.7058  0.3868
 
              Baa    -0.0086    -4.584    -1.636    -1.529  0.4572 -0.2688  0.8478
    26 H(1)   Bbb    -0.0036    -1.917    -0.684    -0.639  0.4135  0.9082  0.0649
              Bcc     0.0122     6.501     2.320     2.168  0.7874 -0.3209 -0.5264
 
              Baa    -0.0014    -0.730    -0.261    -0.244 -0.2441 -0.0996  0.9646
    27 H(1)   Bbb    -0.0013    -0.692    -0.247    -0.231 -0.6963  0.7104 -0.1028
              Bcc     0.0027     1.422     0.508     0.474  0.6750  0.6967  0.2427
 

 ---------------------------------------------------------------------------------

 No NMR shielding tensors so no spin-rotation constants.
 Leave Link  601 at Sun Jun 23 21:42:12 2019, MaxMem=  8053063680 cpu:               0.0 elap:               0.4
 (Enter /data2/g16/g16/l9999.exe)
 1\1\GINC-CU05\SP\UPBE1PBE\Gen\C9H16N1O1(2)\ROOT\23-Jun-2019\0\\#p gen 
 6d pbe1pbe\\start preoptimized\\0,2\C,0,-11.763,58.594,0.6\C,0,-10.733
 ,59.382,1.354\C,0,-10.953,60.698,1.307\C,0,-10.103,61.715,1.957\C,0,-1
 2.186,61.031,0.497\C,0,-11.891,61.702,-0.849\C,0,-13.232,61.81,1.272\C
 ,0,-12.497,57.566,1.469\C,0,-11.18,57.962,-0.661\N,0,-12.658,59.678,0.
 142\O,0,-13.63,59.5,-0.641\H,0,-10.024,58.978,1.8\H,0,-9.75,61.367,2.7
 9\H,0,-10.625,62.51,2.148\H,0,-11.415,62.538,-0.723\H,0,-12.712,61.895
 ,-1.328\H,0,-11.345,61.129,-1.41\H,0,-12.857,62.663,1.541\H,0,-13.49,6
 1.302,2.056\H,0,-14.005,61.955,0.704\H,0,-12.736,57.949,2.327\H,0,-13.
 311,57.267,1.035\H,0,-11.939,56.79,1.63\H,0,-10.749,58.649,-1.193\H,0,
 -10.531,57.287,-0.41\H,0,-11.895,57.553,-1.174\H,0,-9.25425557,62.0524
 2485,1.3996156\\Version=AM64L-G16RevB.01\State=2-A\HF=-481.7686309\S2=
 0.754984\S2-1=0.\S2A=0.750017\RMSD=5.393e-09\Dipole=1.122191,0.345401,
 0.7911298\Quadrupole=-2.8286757,4.0273735,-1.1986978,-1.1562347,-2.000
 7265,-0.6822806\PG=C01 [X(C9H16N1O1)]\\@


 ALMOST ANYTHING IS EASIER TO GET INTO THAN OUT OF.

                         -- AGNES ALLEN'S LAW FROM
                PAUL DICKSON'S "THE OFFICIAL RULES"
 Elapsed time:       0 days  0 hours  1 minutes 14.0 seconds.
 File lengths (MBytes):  RWF=     95 Int=      0 D2E=      0 Chk=      8 Scr=      1
 Normal termination of Gaussian 16 at Sun Jun 23 21:42:13 2019.
