 Entering Gaussian System, Link 0=g16
 AtFile(1): /home/malgo/Basis_sets/n07d_pbe0.gbs
            -H 0
             6-31G
             S   1 1.00       0.000000000000
                  0.4000000000D+00  0.10000000D+01
             P   1 1.00       0.000000000000
                  0.7500000000D+00  0.10000000D+01
             ****
             -He 0
             6-31+G**
             ****
             -Li 0
             6-31+G**
             ****
             -Be 0
             6-31+G**
             ****
             -B 0
             6-31G
             S   1 1.00       0.000000000000
                  0.7000000000D+01  0.1000000000D+01
             P   1 1.00       0.000000000000
                  0.3500000000D-01  0.1000000000D+01
             D   1 1.00
                  0.3430000000D+00  0.1000000000D+01
             ****
             -C 0
             6-31G
             S   1 1.00       0.000000000000
                  0.8700000000D+01  0.1000000000D+01
             P   1 1.00       0.000000000000
                  0.5000000000D-01  0.1000000000D+01
             D   1 1.00
                  0.8200000000D+00  0.1000000000D+01
             ****
             -N 0
             6-31G
             S   1 1.00       0.000000000000
                  0.1370000000D+02  0.1000000000D+01
             P   1 1.00       0.000000000000
                  0.5300000000D-01  0.1000000000D+01
             D   1 1.00       0.000000000000
                  0.1015000000D+01  0.1000000000D+01
             ****
             -O 0
             6-31G
             S   1 1.00
                  0.1600000000D+02  0.1000000000D+01
             P   1 1.00       0.000000000000
                  0.6500000000D-01  0.1000000000D+01
             D   1 1.00        0.000000000000
                  0.1190000000D+01  0.1000000000D+01
             D   1 1.00        0.000000000000
                  0.1800000000D+00  0.1000000000D+01
             ****
             -F 0
             6-31G
             S   1 1.00
                  0.1770000000D+02  0.1000000000D+01
             P   1 1.00       0.000000000000
                  0.8300000000D-01  0.1000000000D+01
             D   1 1.00       0.000000000000
                  1.3700000000D+00  0.1000000000D+01
             D   1 1.00       0.000000000000
                  0.2300000000D+00  0.1000000000D+01
             ****
             -Ne 0
             6-31+G**
             ****
             -Na 0
             6-31+G**
             ****
             -Mg 0
             6-31+G**
             ****
             -Al 0
             6-31G
             S   1 1.00      0.000000000000
                  0.3100000000D+01  0.1000000000D+01
             P   1 1.00      0.000000000000
                  0.1500000000D-01  0.1000000000D+01
             D   1 1.00      0.000000000000
                  0.1890000000D+00  0.1000000000D+01
             ****
             -Si 0
             6-31G
             S   1 1.00      0.000000000000
                  0.5000000000D+01  0.1000000000D+01
             P   1 1.00       0.000000000000
                  0.3300000000D-01  0.1000000000D+01
             D   1 1.0        0.000000000000
                  0.2750000000D+00  0.1000000000D+01
             ****
             -P  0
             6-31G
             S   1 1.00       0.000000000000
                  0.6300000000D+01  0.1000000000D+01
             P   1 1.00       0.000000000000
                  0.3500000000D-01  0.1000000000D+01
             D   1 1.00       0.000000000000
                  0.3730000000D+00  0.1000000000D+01
             ****
             -S  0
             6-31G
             S   1  1.00      0.000000000000
                  0.7500000000D+01  0.1000000000D+01
             P   1 1.00       0.000000000000
                  0.4100000000D-01  0.1000000000D+01
             D   1 1.00       0.000000000000
                  0.4790000000D+00  0.1000000000D+01
             ****
            -Cl 0
             6-31G
             S   1 1.00       0.000000000000
                  0.8500000000D+01  0.1000000000D+01
             P   1 1.00       0.000000000000
                  0.4800000000D-01  0.1000000000D+01
             D   1 1.00       0.000000000000
                  0.6000000000D+00  0.1000000000D+01
             D   1 1.00       0.000000000000
                  0.1960000000D+00  0.1000000000D+01
             ****
            -Br 0
             S   3 1.00       0.000000000000
                  0.4721881000D+01  0.1749732514D+00
                  0.2257555000D+01 -0.7074172290D+00
                  0.3896080000D+00  0.1258999543D+01
             S   1 1.00       0.000000000000
                  0.1471340000D+00  0.1000000000D+01
             P   3 1.00       0.000000000000
                  0.1896942000D+01 -0.2464576731D+00
                  0.9108990000D+00  0.3623179892D+00
                  0.3168550000D+00  0.8338469725D+00
             P   1 1.00       0.000000000000
                  0.1095030000D+00  0.1000000000D+01
             P   1 1.00       0.000000000000
                  0.3609700000D-01  0.1000000000D+01
             D   1 1.00
                  0.4750000000D+00  0.1000000000D+01
             D   1 1.00
                  0.1280000000D+00  0.1000000000D+01
             ****
            -I   0
             S   3 1.00       0.000000000000
                  0.2122765000D+01  0.2063429899D+01
                  0.1770481000D+01 -0.2869526473D+01
                  0.3130840000D+00  0.1404747074D+01
             S   1 1.00       0.000000000000
                  0.1320000000D+00  0.1000000000D+01
             P   3 1.00       0.000000000000
                  0.2432887000D+01  0.7732753148D+00
                  0.2137249000D+01 -0.1020833156D+01
                  0.3145460000D+00  0.1095666871D+01
             P   1 1.00       0.000000000000
                  0.1049450000D+00  0.1000000000D+01
             P   1 1.00       0.000000000000
                  0.3264100000D-01  0.1000000000D+01
             D   1 1.00
                  0.300000000          1.00000000
             D   1 1.00
                  0.090000000          1.00000000
             ****
             -Zn 0
             SP   6 1.00       0.000000000000
                  0.6936492000D+02 -0.4440098182D-02 -0.7689261805D-02
                  0.2362082000D+02  0.7505253308D-01 -0.2997981924D-01
                  0.1018471000D+02  0.2533111104D+00  0.7082410821D-01
                  0.4334082000D+01 -0.2881897118D+00  0.4046140897D+00
                  0.1810918000D+01 -0.7267052298D+00  0.4882324876D+00
                  0.7148410000D+00 -0.2133439088D+00  0.1751969956D+00
             SP   3 1.00       0.000000000000
                  0.2823842000D+01  0.4898545031D-01 -0.1586762981D+00
                  0.1039543000D+01  0.2592794075D+00  0.8379326898D-01
                  0.1432640000D+00 -0.1115711463D+01  0.9840546881D+00
             SP   1 1.00       0.000000000000
                  0.4929600000D-01  0.1000000000D+01  0.1000000000D+01
             S    1 1.00       0.000000000000
                  0.1620000000D+00  0.1000000000D+01
             D    3 1.00       0.000000000000
                  0.3370764000D+02  0.9262647815D-01
                  0.9061106000D+01  0.4002979920D+00
                  0.2738383000D+01  0.6896607863D+00
             D    1 1.00
                  0.2440000000D+01  0.1000000000D+01
             D    1 1.00       0.000000000000
                  0.7302940000D+00  0.1000000000D+01
             D    1 1.00       0.000000000000
                  0.1620000000D+00  0.1000000000D+01
            ****
 Initial command:
 /data2/g16/g16/l1.exe "/tmp/Gau-29163.inp" -scrdir="/tmp/"
 Entering Link 1 = /data2/g16/g16/l1.exe PID=     29164.
  
 Copyright (c) 1988-2017, Gaussian, Inc.  All Rights Reserved.
  
 This is part of the Gaussian(R) 16 program.  It is based on
 the Gaussian(R) 09 system (copyright 2009, Gaussian, Inc.),
 the Gaussian(R) 03 system (copyright 2003, Gaussian, Inc.),
 the Gaussian(R) 98 system (copyright 1998, Gaussian, Inc.),
 the Gaussian(R) 94 system (copyright 1995, Gaussian, Inc.),
 the Gaussian 92(TM) system (copyright 1992, Gaussian, Inc.),
 the Gaussian 90(TM) system (copyright 1990, Gaussian, Inc.),
 the Gaussian 88(TM) system (copyright 1988, Gaussian, Inc.),
 the Gaussian 86(TM) system (copyright 1986, Carnegie Mellon
 University), and the Gaussian 82(TM) system (copyright 1983,
 Carnegie Mellon University). Gaussian is a federally registered
 trademark of Gaussian, Inc.
  
 This software contains proprietary and confidential information,
 including trade secrets, belonging to Gaussian, Inc.
  
 This software is provided under written license and may be
 used, copied, transmitted, or stored only in accord with that
 written license.
  
 The following legend is applicable only to US Government
 contracts under FAR:
  
                    RESTRICTED RIGHTS LEGEND
  
 Use, reproduction and disclosure by the US Government is
 subject to restrictions as set forth in subparagraphs (a)
 and (c) of the Commercial Computer Software - Restricted
 Rights clause in FAR 52.227-19.
  
 Gaussian, Inc.
 340 Quinnipiac St., Bldg. 40, Wallingford CT 06492
  
  
 ---------------------------------------------------------------
 Warning -- This program may not be used in any manner that
 competes with the business of Gaussian, Inc. or will provide
 assistance to any competitor of Gaussian, Inc.  The licensee
 of this program is prohibited from giving any competitor of
 Gaussian, Inc. access to this program.  By using this program,
 the user acknowledges that Gaussian, Inc. is engaged in the
 business of creating and licensing software in the field of
 computational chemistry and represents and warrants to the
 licensee that it is not a competitor of Gaussian, Inc. and that
 it will not use this program in any manner prohibited above.
 ---------------------------------------------------------------
  

 Cite this work as:
 Gaussian 16, Revision B.01,
 M. J. Frisch, G. W. Trucks, H. B. Schlegel, G. E. Scuseria, 
 M. A. Robb, J. R. Cheeseman, G. Scalmani, V. Barone, 
 G. A. Petersson, H. Nakatsuji, X. Li, M. Caricato, A. V. Marenich, 
 J. Bloino, B. G. Janesko, R. Gomperts, B. Mennucci, H. P. Hratchian, 
 J. V. Ortiz, A. F. Izmaylov, J. L. Sonnenberg, D. Williams-Young, 
 F. Ding, F. Lipparini, F. Egidi, J. Goings, B. Peng, A. Petrone, 
 T. Henderson, D. Ranasinghe, V. G. Zakrzewski, J. Gao, N. Rega, 
 G. Zheng, W. Liang, M. Hada, M. Ehara, K. Toyota, R. Fukuda, 
 J. Hasegawa, M. Ishida, T. Nakajima, Y. Honda, O. Kitao, H. Nakai, 
 T. Vreven, K. Throssell, J. A. Montgomery, Jr., J. E. Peralta, 
 F. Ogliaro, M. J. Bearpark, J. J. Heyd, E. N. Brothers, K. N. Kudin, 
 V. N. Staroverov, T. A. Keith, R. Kobayashi, J. Normand, 
 K. Raghavachari, A. P. Rendell, J. C. Burant, S. S. Iyengar, 
 J. Tomasi, M. Cossi, J. M. Millam, M. Klene, C. Adamo, R. Cammi, 
 J. W. Ochterski, R. L. Martin, K. Morokuma, O. Farkas, 
 J. B. Foresman, and D. J. Fox, Gaussian, Inc., Wallingford CT, 2016.
 
 ******************************************
 Gaussian 16:  AM64L-G16RevB.01 20-Dec-2017
                23-Jun-2019 
 ******************************************
 %chk=6N87_MTN_refine.chk
 %mem=60GB
 %nprocshared=12
 Will use up to   12 processors via shared memory.
 -----------------
 #p gen 6d pbe1pbe
 -----------------
 1/38=1,172=1/1;
 2/12=2,17=6,18=5,40=1/2;
 3/5=7,8=2,11=2,25=1,30=1,74=-13/1,2,3;
 4//1;
 5/5=2,38=5/2;
 6/7=2,8=2,9=2,10=2,28=1/1;
 99/5=1,9=1/99;
 Leave Link    1 at Sun Jun 23 21:42:03 2019, MaxMem=  8053063680 cpu:               0.0 elap:               0.0
 (Enter /data2/g16/g16/l101.exe)
 ------------------
 start preoptimized
 ------------------
 Symbolic Z-matrix:
 Charge =  0 Multiplicity = 2
 C                     82.233    11.38     6.07 
 C                     83.161    11.175    4.934 
 C                     83.061    9.944     4.462 
 C                     83.965    9.488     3.395 
 C                     82.214    8.992     5.217 
 C                     83.048    7.893     5.958 
 C                     81.372    8.394     4.123 
 C                     81.371    12.642    5.758 
 C                     83.104    11.527    7.319 
 N                     81.642    10.002    6.126 
 O                     80.678    9.693     6.851 
 H                     83.729    11.837    4.611 
 H                     83.994    8.535     3.216 
 H                     83.927    9.961     2.55 
 H                     82.469    7.295     6.456 
 H                     83.556    7.359     5.327 
 H                     83.673    8.294     6.582 
 H                     80.706    7.809     4.517 
 H                     80.934    9.107     3.633 
 H                     81.942    7.886     3.524 
 H                     81.871    13.454    5.939 
 H                     80.569    12.655    6.304 
 H                     81.102    12.654    4.826 
 H                     83.645    10.729    7.427 
 H                     82.533    11.642    8.095 
 H                     83.679    12.301    7.218 
 H                     84.69687   9.8462    4.08851 
 
 ITRead=  0  0  0  0  0  0  0  0  0  0  0  0  0  0  0  0  0  0  0  0
 ITRead=  0  0  0  0  0  0  0
 MicOpt= -1 -1 -1 -1 -1 -1 -1 -1 -1 -1 -1 -1 -1 -1 -1 -1 -1 -1 -1 -1
 MicOpt= -1 -1 -1 -1 -1 -1 -1
 NAtoms=     27 NQM=       27 NQMF=       0 NMMI=      0 NMMIF=      0
                NMic=       0 NMicF=      0.
                    Isotopes and Nuclear Properties:
 (Nuclear quadrupole moments (NQMom) in fm**2, nuclear magnetic moments (NMagM)
  in nuclear magnetons)

  Atom         1           2           3           4           5           6           7           8           9          10
 IAtWgt=          12          12          12          12          12          12          12          12          12          14
 AtmWgt=  12.0000000  12.0000000  12.0000000  12.0000000  12.0000000  12.0000000  12.0000000  12.0000000  12.0000000  14.0030740
 NucSpn=           0           0           0           0           0           0           0           0           0           2
 AtZEff=   0.0000000   0.0000000   0.0000000   0.0000000   0.0000000   0.0000000   0.0000000   0.0000000   0.0000000   0.0000000
 NQMom=    0.0000000   0.0000000   0.0000000   0.0000000   0.0000000   0.0000000   0.0000000   0.0000000   0.0000000   2.0440000
 NMagM=    0.0000000   0.0000000   0.0000000   0.0000000   0.0000000   0.0000000   0.0000000   0.0000000   0.0000000   0.4037610
 AtZNuc=   6.0000000   6.0000000   6.0000000   6.0000000   6.0000000   6.0000000   6.0000000   6.0000000   6.0000000   7.0000000

  Atom        11          12          13          14          15          16          17          18          19          20
 IAtWgt=          16           1           1           1           1           1           1           1           1           1
 AtmWgt=  15.9949146   1.0078250   1.0078250   1.0078250   1.0078250   1.0078250   1.0078250   1.0078250   1.0078250   1.0078250
 NucSpn=           0           1           1           1           1           1           1           1           1           1
 AtZEff=   0.0000000   0.0000000   0.0000000   0.0000000   0.0000000   0.0000000   0.0000000   0.0000000   0.0000000   0.0000000
 NQMom=    0.0000000   0.0000000   0.0000000   0.0000000   0.0000000   0.0000000   0.0000000   0.0000000   0.0000000   0.0000000
 NMagM=    0.0000000   2.7928460   2.7928460   2.7928460   2.7928460   2.7928460   2.7928460   2.7928460   2.7928460   2.7928460
 AtZNuc=   8.0000000   1.0000000   1.0000000   1.0000000   1.0000000   1.0000000   1.0000000   1.0000000   1.0000000   1.0000000

  Atom        21          22          23          24          25          26          27
 IAtWgt=           1           1           1           1           1           1           1
 AtmWgt=   1.0078250   1.0078250   1.0078250   1.0078250   1.0078250   1.0078250   1.0078250
 NucSpn=           1           1           1           1           1           1           1
 AtZEff=   0.0000000   0.0000000   0.0000000   0.0000000   0.0000000   0.0000000   0.0000000
 NQMom=    0.0000000   0.0000000   0.0000000   0.0000000   0.0000000   0.0000000   0.0000000
 NMagM=    2.7928460   2.7928460   2.7928460   2.7928460   2.7928460   2.7928460   2.7928460
 AtZNuc=   1.0000000   1.0000000   1.0000000   1.0000000   1.0000000   1.0000000   1.0000000
 Leave Link  101 at Sun Jun 23 21:42:03 2019, MaxMem=  8053063680 cpu:               0.0 elap:               0.1
 (Enter /data2/g16/g16/l202.exe)
                          Input orientation:                          
 ---------------------------------------------------------------------
 Center     Atomic      Atomic             Coordinates (Angstroms)
 Number     Number       Type             X           Y           Z
 ---------------------------------------------------------------------
      1          6           0       82.233000   11.380000    6.070000
      2          6           0       83.161000   11.175000    4.934000
      3          6           0       83.061000    9.944000    4.462000
      4          6           0       83.965000    9.488000    3.395000
      5          6           0       82.214000    8.992000    5.217000
      6          6           0       83.048000    7.893000    5.958000
      7          6           0       81.372000    8.394000    4.123000
      8          6           0       81.371000   12.642000    5.758000
      9          6           0       83.104000   11.527000    7.319000
     10          7           0       81.642000   10.002000    6.126000
     11          8           0       80.678000    9.693000    6.851000
     12          1           0       83.729000   11.837000    4.611000
     13          1           0       83.994000    8.535000    3.216000
     14          1           0       83.927000    9.961000    2.550000
     15          1           0       82.469000    7.295000    6.456000
     16          1           0       83.556000    7.359000    5.327000
     17          1           0       83.673000    8.294000    6.582000
     18          1           0       80.706000    7.809000    4.517000
     19          1           0       80.934000    9.107000    3.633000
     20          1           0       81.942000    7.886000    3.524000
     21          1           0       81.871000   13.454000    5.939000
     22          1           0       80.569000   12.655000    6.304000
     23          1           0       81.102000   12.654000    4.826000
     24          1           0       83.645000   10.729000    7.427000
     25          1           0       82.533000   11.642000    8.095000
     26          1           0       83.679000   12.301000    7.218000
     27          1           0       84.696869    9.846201    4.088512
 ---------------------------------------------------------------------
                    Distance matrix (angstroms):
                    1          2          3          4          5
     1  C    0.000000
     2  C    1.481116   0.000000
     3  C    2.309403   1.322174   0.000000
     4  C    3.706091   2.420931   1.470932   0.000000
     5  C    2.535846   2.396328   1.481127   2.575209   0.000000
     6  C    3.582728   3.439894   2.538658   3.154977   1.566026
     7  C    3.667196   3.404732   2.317357   2.906969   1.504461
     8  C    1.559818   2.456657   3.437284   4.718084   3.784948
     9  C    1.529788   2.411509   3.266525   4.505177   3.411265
    10  N    1.500434   2.259237   2.187652   3.622000   1.474302
    11  O    2.423624   3.469366   3.383639   4.773922   2.349607
    12  H    2.139053   0.930160   2.012927   2.655589   3.279708
    13  H    4.397779   3.258069   2.099592   0.970098   2.716846
    14  H    4.156152   2.782806   2.099045   0.969122   3.314547
    15  H    4.109978   4.224896   3.368041   4.051788   2.116590
    16  H    4.297769   3.856466   2.770465   2.903885   2.116543
    17  H    3.443710   3.358304   2.755258   3.415826   2.116391
    18  H    4.182772   4.186988   3.179194   3.833928   2.040479
    19  H    3.576716   3.305867   2.431448   3.064109   2.039775
    20  H    4.332994   3.780421   2.523365   2.583713   2.040458
    21  H    2.109427   2.804989   3.989703   5.156154   4.533032
    22  H    2.109331   3.284169   4.117347   5.479506   4.159947
    23  H    2.109449   2.537437   3.363670   4.502009   3.847034
    24  H    2.063733   2.578414   3.122260   4.230781   3.154208
    25  H    2.063800   3.256439   4.044833   5.364731   3.925194
    26  H    2.063265   2.598626   3.678710   4.755007   4.135179
    27  H    3.514183   2.199875   1.680811   1.070000   2.857933
                    6          7          8          9         10
     6  C    0.000000
     7  C    2.535193   0.000000
     8  C    5.040370   4.551783   0.000000
     9  C    3.880904   4.798951   2.585195   0.000000
    10  N    2.540264   2.582745   2.679266   2.426174   0.000000
    11  O    3.107145   3.100165   3.220481   3.077021   1.245151
    12  H    4.222950   4.200933   2.742954   2.796424   3.165125
    13  H    2.970799   2.778023   5.496303   5.155461   4.018967
    14  H    4.082123   3.384944   4.900221   5.086555   4.243899
    15  H    0.969974   2.802517   5.503019   4.365526   2.849680
    16  H    0.970248   2.700129   5.733243   4.641615   3.359650
    17  H    0.969949   3.369166   4.988315   3.364405   2.692612
    18  H    2.751091   0.970060   5.033905   5.236901   2.876495
    19  H    3.368741   0.969697   4.147628   4.914458   2.741776
    20  H    2.673507   0.970446   5.285483   5.386014   3.367174
    21  H    5.684225   5.399116   0.970621   2.671707   3.464638
    22  H    5.379758   4.853627   0.970304   2.954460   2.867302
    23  H    5.266447   4.326050   0.970118   3.390160   3.002450
    24  H    3.249195   4.640600   3.408256   0.970128   2.496626
    25  H    4.345917   5.260628   2.794962   0.970279   2.713013
    26  H    4.627767   5.492351   2.752225   0.969485   3.259944
    27  H    3.166820   3.628337   4.654577   3.974716   3.675303
                   11         12         13         14         15
    11  O    0.000000
    12  H    4.350050   0.000000
    13  H    5.054705   3.594364   0.000000
    14  H    5.396890   2.793976   1.575284   0.000000
    15  H    3.018958   5.061758   3.789568   4.948753   0.000000
    16  H    4.006622   4.538179   2.455838   3.823581   1.568536
    17  H    3.316563   4.054729   3.389849   4.370404   1.569552
    18  H    2.999633   5.037077   3.609795   4.344541   2.670597
    19  H    3.280923   4.027581   3.140808   3.295490   3.689024
    20  H    3.991475   4.470497   2.174113   3.032248   3.037044
    21  H    4.049705   2.798292   6.009860   5.283323   6.209523
    22  H    3.014056   3.677088   6.183912   5.711945   5.688823
    23  H    3.612191   2.759500   5.284120   4.518080   5.765802
    24  H    3.195021   3.027305   4.761088   4.945147   3.757416
    25  H    2.964315   3.688726   5.965954   5.959532   4.646163
    26  H    3.992788   2.648442   5.504361   5.227555   5.206225
    27  H    4.879151   2.274432   1.724689   1.724209   4.132436
                   16         17         18         19         20
    16  H    0.000000
    17  H    1.569375   0.000000
    18  H    2.996848   3.647265   0.000000
    19  H    3.577712   4.106055   1.586898   0.000000
    20  H    2.476597   3.537540   1.587348   1.587068   0.000000
    21  H    6.353172   5.503295   5.936778   5.009193   6.069587
    22  H    6.158272   5.360077   5.166803   4.455981   5.688312
    23  H    5.857486   5.357535   4.870967   3.746022   5.013445
    24  H    3.971753   2.577602   5.062827   4.937088   5.120182
    25  H    5.201196   3.846800   5.552648   5.375172   5.945659
    26  H    5.292861   4.057164   6.025960   5.530722   6.012905
    27  H    3.003599   3.110485   4.501203   3.861747   3.427881
                   21         22         23         24         25
    21  H    0.000000
    22  H    1.570615   0.000000
    23  H    1.571665   1.571170   0.000000
    24  H    3.575870   3.798997   4.115541   0.000000
    25  H    2.893082   2.844494   3.709214   1.586297   0.000000
    26  H    2.496821   3.260799   3.533724   1.586197   1.586419
    27  H    4.942272   5.462329   4.620682   3.609884   4.894810
                   26         27
    26  H    0.000000
    27  H    4.105580   0.000000
 Stoichiometry    C9H16NO(2)
 Framework group  C1[X(C9H16NO)]
 Deg. of freedom    75
 Full point group                 C1      NOp   1
 Largest Abelian subgroup         C1      NOp   1
 Largest concise Abelian subgroup C1      NOp   1
                         Standard orientation:                         
 ---------------------------------------------------------------------
 Center     Atomic      Atomic             Coordinates (Angstroms)
 Number     Number       Type             X           Y           Z
 ---------------------------------------------------------------------
      1          6           0       -1.410545    0.221684    0.003442
      2          6           0       -0.475974    1.369867    0.047690
      3          6           0        0.776021    0.961261   -0.069336
      4          6           0        1.880324    1.925528    0.050440
      5          6           0        1.019944   -0.499539   -0.051999
      6          6           0        1.719774   -0.982701    1.263004
      7          6           0        1.918372   -0.676188   -1.245743
      8          6           0       -2.472346    0.515172   -1.100857
      9          6           0       -2.005946    0.094209    1.406830
     10          7           0       -0.401969   -0.881146   -0.130134
     11          8           0       -0.702813   -2.069031   -0.351092
     12          1           0       -0.753391    2.252393    0.144556
     13          1           0        2.774486    1.564347    0.155856
     14          1           0        1.911473    2.645995   -0.596982
     15          1           0        1.851700   -1.943608    1.252917
     16          1           0        2.588636   -0.563712    1.367452
     17          1           0        1.185301   -0.761496    2.041598
     18          1           0        2.075970   -1.622608   -1.388815
     19          1           0        1.489076   -0.293185   -2.026337
     20          1           0        2.761085   -0.224481   -1.079733
     21          1           0       -3.147132    1.131908   -0.774659
     22          1           0       -2.919037   -0.301407   -1.375001
     23          1           0       -2.055943    0.908956   -1.883591
     24          1           0       -1.289478   -0.040751    2.046837
     25          1           0       -2.611228   -0.663790    1.429473
     26          1           0       -2.489624    0.906026    1.623419
     27          1           0        1.366647    2.149928    0.961857
 ---------------------------------------------------------------------
 Rotational constants (GHZ):           1.5741074           1.0371081           0.8578808
 Leave Link  202 at Sun Jun 23 21:42:03 2019, MaxMem=  8053063680 cpu:               0.0 elap:               0.0
 (Enter /data2/g16/g16/l301.exe)
 General basis read from cards:  (6D, 7F)
 Centers:      12     13     14     15     16     17     18     19     20     21
 Centers:      22     23     24     25     26     27
 6-31G
 S 1 1.00 0.000000000000
     Exponent=  4.0000000000D-01 Coefficients=  1.0000000000D+00
 P 1 1.00 0.000000000000
     Exponent=  7.5000000000D-01 Coefficients=  1.0000000000D+00
 ****
 Centers:       1      2      3      4      5      6      7      8      9
 6-31G
 S 1 1.00 0.000000000000
     Exponent=  8.7000000000D+00 Coefficients=  1.0000000000D+00
 P 1 1.00 0.000000000000
     Exponent=  5.0000000000D-02 Coefficients=  1.0000000000D+00
 D 1 1.00
     Exponent=  8.2000000000D-01 Coefficients=  1.0000000000D+00
 ****
 Centers:      10
 6-31G
 S 1 1.00 0.000000000000
     Exponent=  1.3700000000D+01 Coefficients=  1.0000000000D+00
 P 1 1.00 0.000000000000
     Exponent=  5.3000000000D-02 Coefficients=  1.0000000000D+00
 D 1 1.00 0.000000000000
     Exponent=  1.0150000000D+00 Coefficients=  1.0000000000D+00
 ****
 Centers:      11
 6-31G
 S 1 1.00
     Exponent=  1.6000000000D+01 Coefficients=  1.0000000000D+00
 P 1 1.00 0.000000000000
     Exponent=  6.5000000000D-02 Coefficients=  1.0000000000D+00
 D 1 1.00 0.000000000000
     Exponent=  1.1900000000D+00 Coefficients=  1.0000000000D+00
 D 1 1.00 0.000000000000
     Exponent=  1.8000000000D-01 Coefficients=  1.0000000000D+00
 ****
 Ernie: Thresh=  0.10000D-02 Tol=  0.10000D-05 Strict=F.
 There are   311 symmetry adapted cartesian basis functions of A   symmetry.
 There are   311 symmetry adapted basis functions of A   symmetry.
   311 basis functions,   486 primitive gaussians,   311 cartesian basis functions
    43 alpha electrons       42 beta electrons
       nuclear repulsion energy       694.6479124684 Hartrees.
 IExCor= 1009 DFT=T Ex+Corr=PBE1PBE ExCW=0 ScaHFX=  0.250000
 ScaDFX=  0.750000  0.750000  1.000000  1.000000 ScalE2=  1.000000  1.000000
 IRadAn=      5 IRanWt=     -1 IRanGd=            0 ICorTp=0 IEmpDi=  4
 NAtoms=   27 NActive=   27 NUniq=   27 SFac= 1.00D+00 NAtFMM=   60 NAOKFM=F Big=F
 Integral buffers will be    131072 words long.
 Raffenetti 2 integral format.
 Two-electron integral symmetry is turned on.
 Leave Link  301 at Sun Jun 23 21:42:03 2019, MaxMem=  8053063680 cpu:               0.0 elap:               0.1
 (Enter /data2/g16/g16/l302.exe)
 NPDir=0 NMtPBC=     1 NCelOv=     1 NCel=       1 NClECP=     1 NCelD=      1
         NCelK=      1 NCelE2=     1 NClLst=     1 CellRange=     0.0.
 One-electron integrals computed using PRISM.
 One-electron integral symmetry used in STVInt
 NBasis=   311 RedAO= T EigKep=  1.07D-04  NBF=   311
 NBsUse=   311 1.00D-06 EigRej= -1.00D+00 NBFU=   311
 Precomputing XC quadrature grid using
 IXCGrd= 4 IRadAn=           5 IRanWt=          -1 IRanGd=           0 AccXCQ= 0.00D+00.
 Generated NRdTot=       0 NPtTot=           0 NUsed=           0 NTot=          32
 NSgBfM=   309   309   309   309   309 MxSgAt=    27 MxSgA2=    27.
 Leave Link  302 at Sun Jun 23 21:42:03 2019, MaxMem=  8053063680 cpu:               0.0 elap:               0.4
 (Enter /data2/g16/g16/l303.exe)
 DipDrv:  MaxL=1.
 Leave Link  303 at Sun Jun 23 21:42:03 2019, MaxMem=  8053063680 cpu:               0.0 elap:               0.1
 (Enter /data2/g16/g16/l401.exe)
 ExpMin= 5.00D-02 ExpMax= 5.48D+03 ExpMxC= 8.25D+02 IAcc=3 IRadAn=         5 AccDes= 0.00D+00
 Harris functional with IExCor= 1009 and IRadAn=       5 diagonalized for initial guess.
 HarFok:  IExCor= 1009 AccDes= 0.00D+00 IRadAn=         5 IDoV= 1 UseB2=F ITyADJ=14
 ICtDFT=  3500011 ScaDFX=  1.000000  1.000000  1.000000  1.000000
 FoFCou: FMM=F IPFlag=           0 FMFlag=      100000 FMFlg1=           0
         NFxFlg=           0 DoJE=T BraDBF=F KetDBF=T FulRan=T
         wScrn=  0.000000 ICntrl=       500 IOpCl=  0 I1Cent=   200000004 NGrid=           0
         NMat0=    1 NMatS0=      1 NMatT0=    0 NMatD0=    1 NMtDS0=    0 NMtDT0=    0
 Petite list used in FoFCou.
 Harris En= -482.083980697125    
 JPrj=0 DoOrth=F DoCkMO=F.
 Initial guess <Sx>= 0.0000 <Sy>= 0.0000 <Sz>= 0.5000 <S**2>= 0.7500 S= 0.5000
 Leave Link  401 at Sun Jun 23 21:42:04 2019, MaxMem=  8053063680 cpu:               0.0 elap:               1.0
 (Enter /data2/g16/g16/l502.exe)
 Integral symmetry usage will be decided dynamically.
 UHF open shell SCF:
 Using DIIS extrapolation, IDIIS=  1040.
 NGot=  8053063680 LenX=  8052863195 LenY=  8052766033
 Requested convergence on RMS density matrix=1.00D-08 within 128 cycles.
 Requested convergence on MAX density matrix=1.00D-06.
 Requested convergence on             energy=1.00D-06.
 No special actions if energy rises.
 Fock matrices will be formed incrementally for  20 cycles.
 Integral accuracy reduced to 1.0D-05 until final iterations.

 Cycle   1  Pass 0  IDiag  1:
 FoFJK:  IHMeth= 1 ICntrl=       0 DoSepK=F KAlg= 0 I1Cent=           0 FoldK=F
 IRaf= 940000000 NMat=       1 IRICut=       1 DoRegI=T DoRafI=F ISym2E= 0 IDoP0=0 IntGTp=1.
 FoFCou: FMM=F IPFlag=           0 FMFlag=      100000 FMFlg1=           0
         NFxFlg=           0 DoJE=F BraDBF=F KetDBF=F FulRan=T
         wScrn=  0.000000 ICntrl=         0 IOpCl=  1 I1Cent=           0 NGrid=           0
         NMat0=    1 NMatS0=      1 NMatT0=    0 NMatD0=    1 NMtDS0=    0 NMtDT0=    0
 Symmetry not used in FoFCou.
 E= -481.188522034081    
 DIIS: error= 3.08D-02 at cycle   1 NSaved=   1.
 NSaved= 1 IEnMin= 1 EnMin= -481.188522034081     IErMin= 1 ErrMin= 3.08D-02
 ErrMax= 3.08D-02  0.00D+00 EMaxC= 1.00D-01 BMatC= 2.29D+00 BMatP= 2.29D+00
 IDIUse=3 WtCom= 6.92D-01 WtEn= 3.08D-01
 Coeff-Com:  0.100D+01
 Coeff-En:   0.100D+01
 Coeff:      0.100D+01
 Gap=     0.301 Goal=   None    Shift=    0.000
 Gap=     0.158 Goal=   None    Shift=    0.000
 GapD=    0.158 DampG=1.000 DampE=0.500 DampFc=0.5000 IDamp=-1.
 Damping current iteration by 5.00D-01
 RMSDP=4.55D-03 MaxDP=1.56D-01              OVMax= 2.29D-01

 Cycle   2  Pass 0  IDiag  1:
 RMSU=  2.21D-03    CP:  9.67D-01
 E= -481.433724241885     Delta-E=       -0.245202207804 Rises=F Damp=T
 DIIS: error= 6.77D-03 at cycle   2 NSaved=   2.
 NSaved= 2 IEnMin= 2 EnMin= -481.433724241885     IErMin= 2 ErrMin= 6.77D-03
 ErrMax= 6.77D-03  0.00D+00 EMaxC= 1.00D-01 BMatC= 1.41D-01 BMatP= 2.29D+00
 IDIUse=3 WtCom= 9.32D-01 WtEn= 6.77D-02
 Coeff-Com:  0.371D-01 0.963D+00
 Coeff-En:   0.390D-01 0.961D+00
 Coeff:      0.373D-01 0.963D+00
 Gap=     0.246 Goal=   None    Shift=    0.000
 Gap=     0.198 Goal=   None    Shift=    0.000
 RMSDP=1.32D-03 MaxDP=7.50D-02 DE=-2.45D-01 OVMax= 1.56D-01

 Cycle   3  Pass 0  IDiag  1:
 RMSU=  1.29D-03    CP:  9.49D-01  9.76D-01
 E= -481.679883603676     Delta-E=       -0.246159361791 Rises=F Damp=F
 DIIS: error= 7.65D-03 at cycle   3 NSaved=   3.
 NSaved= 3 IEnMin= 3 EnMin= -481.679883603676     IErMin= 2 ErrMin= 6.77D-03
 ErrMax= 7.65D-03  0.00D+00 EMaxC= 1.00D-01 BMatC= 1.66D-01 BMatP= 1.41D-01
 IDIUse=3 WtCom= 1.03D-01 WtEn= 8.97D-01
 Coeff-Com: -0.247D-01 0.535D+00 0.490D+00
 Coeff-En:   0.000D+00 0.000D+00 0.100D+01
 Coeff:     -0.254D-02 0.549D-01 0.948D+00
 Gap=     0.235 Goal=   None    Shift=    0.000
 Gap=     0.204 Goal=   None    Shift=    0.000
 RMSDP=1.78D-03 MaxDP=1.25D-01 DE=-2.46D-01 OVMax= 1.94D-01

 Cycle   4  Pass 0  IDiag  1:
 RMSU=  1.14D-03    CP:  9.61D-01  1.19D+00  1.74D-02
 E= -481.611969582230     Delta-E=        0.067914021447 Rises=F Damp=F
 DIIS: error= 1.48D-02 at cycle   4 NSaved=   4.
 NSaved= 4 IEnMin= 3 EnMin= -481.679883603676     IErMin= 2 ErrMin= 6.77D-03
 ErrMax= 1.48D-02  0.00D+00 EMaxC= 1.00D-01 BMatC= 5.43D-01 BMatP= 1.41D-01
 IDIUse=2 WtCom= 0.00D+00 WtEn= 1.00D+00
 Coeff-En:   0.000D+00 0.000D+00 0.711D+00 0.289D+00
 Coeff:      0.000D+00 0.000D+00 0.711D+00 0.289D+00
 Gap=     0.221 Goal=   None    Shift=    0.000
 Gap=     0.210 Goal=   None    Shift=    0.000
 RMSDP=9.35D-04 MaxDP=6.55D-02 DE= 6.79D-02 OVMax= 1.01D-01

 Cycle   5  Pass 0  IDiag  1:
 RMSU=  2.61D-04    CP:  9.55D-01  1.06D+00  4.94D-01  4.88D-01
 E= -481.708119437662     Delta-E=       -0.096149855432 Rises=F Damp=F
 DIIS: error= 2.84D-03 at cycle   5 NSaved=   5.
 NSaved= 5 IEnMin= 5 EnMin= -481.708119437662     IErMin= 5 ErrMin= 2.84D-03
 ErrMax= 2.84D-03  0.00D+00 EMaxC= 1.00D-01 BMatC= 2.23D-02 BMatP= 1.41D-01
 IDIUse=3 WtCom= 9.72D-01 WtEn= 2.84D-02
 Coeff-Com:  0.222D-04-0.915D-02 0.267D+00 0.144D-02 0.741D+00
 Coeff-En:   0.000D+00 0.000D+00 0.132D+00 0.000D+00 0.868D+00
 Coeff:      0.215D-04-0.889D-02 0.263D+00 0.140D-02 0.744D+00
 Gap=     0.202 Goal=   None    Shift=    0.000
 Gap=     0.212 Goal=   None    Shift=    0.000
 RMSDP=2.60D-04 MaxDP=1.57D-02 DE=-9.61D-02 OVMax= 2.04D-02

 Cycle   6  Pass 0  IDiag  1:
 RMSU=  6.23D-05    CP:  9.53D-01  1.03D+00  6.43D-01  3.62D-01  8.21D-01
 E= -481.712333508952     Delta-E=       -0.004214071289 Rises=F Damp=F
 DIIS: error= 2.98D-04 at cycle   6 NSaved=   6.
 NSaved= 6 IEnMin= 6 EnMin= -481.712333508952     IErMin= 6 ErrMin= 2.98D-04
 ErrMax= 2.98D-04  0.00D+00 EMaxC= 1.00D-01 BMatC= 1.86D-04 BMatP= 2.23D-02
 IDIUse=3 WtCom= 9.97D-01 WtEn= 2.98D-03
 Coeff-Com: -0.246D-02 0.383D-03 0.465D-01-0.475D-01 0.352D+00 0.651D+00
 Coeff-En:   0.000D+00 0.000D+00 0.000D+00 0.000D+00 0.000D+00 0.100D+01
 Coeff:     -0.245D-02 0.382D-03 0.464D-01-0.474D-01 0.351D+00 0.652D+00
 Gap=     0.204 Goal=   None    Shift=    0.000
 Gap=     0.210 Goal=   None    Shift=    0.000
 RMSDP=3.95D-05 MaxDP=2.61D-03 DE=-4.21D-03 OVMax= 2.78D-03

 Cycle   7  Pass 0  IDiag  1:
 RMSU=  2.01D-05    CP:  9.53D-01  1.04D+00  6.39D-01  3.66D-01  9.40D-01
                    CP:  8.37D-01
 E= -481.712376345070     Delta-E=       -0.000042836119 Rises=F Damp=F
 DIIS: error= 7.45D-05 at cycle   7 NSaved=   7.
 NSaved= 7 IEnMin= 7 EnMin= -481.712376345070     IErMin= 7 ErrMin= 7.45D-05
 ErrMax= 7.45D-05  0.00D+00 EMaxC= 1.00D-01 BMatC= 1.16D-05 BMatP= 1.86D-04
 IDIUse=1 WtCom= 1.00D+00 WtEn= 0.00D+00
 Coeff-Com: -0.628D-03 0.130D-02-0.130D-01-0.141D-01 0.148D-01 0.916D-01
 Coeff-Com:  0.920D+00
 Coeff:     -0.628D-03 0.130D-02-0.130D-01-0.141D-01 0.148D-01 0.916D-01
 Coeff:      0.920D+00
 Gap=     0.205 Goal=   None    Shift=    0.000
 Gap=     0.210 Goal=   None    Shift=    0.000
 RMSDP=1.06D-05 MaxDP=6.08D-04 DE=-4.28D-05 OVMax= 9.68D-04

 Cycle   8  Pass 0  IDiag  1:
 RMSU=  7.40D-06    CP:  9.53D-01  1.04D+00  6.39D-01  3.65D-01  9.67D-01
                    CP:  8.72D-01  1.06D+00
 E= -481.712379603149     Delta-E=       -0.000003258078 Rises=F Damp=F
 DIIS: error= 2.84D-05 at cycle   8 NSaved=   8.
 NSaved= 8 IEnMin= 8 EnMin= -481.712379603149     IErMin= 8 ErrMin= 2.84D-05
 ErrMax= 2.84D-05  0.00D+00 EMaxC= 1.00D-01 BMatC= 2.31D-06 BMatP= 1.16D-05
 IDIUse=1 WtCom= 1.00D+00 WtEn= 0.00D+00
 Coeff-Com:  0.171D-03 0.252D-03-0.113D-01 0.120D-02-0.462D-01-0.683D-01
 Coeff-Com:  0.341D+00 0.783D+00
 Coeff:      0.171D-03 0.252D-03-0.113D-01 0.120D-02-0.462D-01-0.683D-01
 Coeff:      0.341D+00 0.783D+00
 Gap=     0.205 Goal=   None    Shift=    0.000
 Gap=     0.210 Goal=   None    Shift=    0.000
 RMSDP=5.89D-06 MaxDP=2.87D-04 DE=-3.26D-06 OVMax= 4.91D-04

 Initial convergence to 1.0D-05 achieved.  Increase integral accuracy.
 Cycle   9  Pass 1  IDiag  1:
 E= -481.712354312539     Delta-E=        0.000025290609 Rises=F Damp=F
 DIIS: error= 3.08D-05 at cycle   1 NSaved=   1.
 NSaved= 1 IEnMin= 1 EnMin= -481.712354312539     IErMin= 1 ErrMin= 3.08D-05
 ErrMax= 3.08D-05  0.00D+00 EMaxC= 1.00D-01 BMatC= 1.40D-06 BMatP= 1.40D-06
 IDIUse=1 WtCom= 1.00D+00 WtEn= 0.00D+00
 Coeff-Com:  0.100D+01
 Coeff:      0.100D+01
 Gap=     0.205 Goal=   None    Shift=    0.000
 Gap=     0.210 Goal=   None    Shift=    0.000
 RMSDP=5.89D-06 MaxDP=2.87D-04 DE= 2.53D-05 OVMax= 6.07D-04

 Cycle  10  Pass 1  IDiag  1:
 RMSU=  1.12D-05    CP:  1.00D+00
 E= -481.712354064124     Delta-E=        0.000000248416 Rises=F Damp=F
 DIIS: error= 2.90D-05 at cycle   2 NSaved=   2.
 NSaved= 2 IEnMin= 1 EnMin= -481.712354312539     IErMin= 2 ErrMin= 2.90D-05
 ErrMax= 2.90D-05  0.00D+00 EMaxC= 1.00D-01 BMatC= 2.26D-06 BMatP= 1.40D-06
 IDIUse=1 WtCom= 1.00D+00 WtEn= 0.00D+00
 Coeff-Com:  0.571D+00 0.429D+00
 Coeff:      0.571D+00 0.429D+00
 Gap=     0.205 Goal=   None    Shift=    0.000
 Gap=     0.210 Goal=   None    Shift=    0.000
 RMSDP=3.38D-06 MaxDP=2.19D-04 DE= 2.48D-07 OVMax= 4.68D-04

 Cycle  11  Pass 1  IDiag  1:
 RMSU=  3.17D-06    CP:  1.00D+00  8.94D-01
 E= -481.712354602918     Delta-E=       -0.000000538794 Rises=F Damp=F
 DIIS: error= 7.94D-06 at cycle   3 NSaved=   3.
 NSaved= 3 IEnMin= 3 EnMin= -481.712354602918     IErMin= 3 ErrMin= 7.94D-06
 ErrMax= 7.94D-06  0.00D+00 EMaxC= 1.00D-01 BMatC= 1.31D-07 BMatP= 1.40D-06
 IDIUse=1 WtCom= 1.00D+00 WtEn= 0.00D+00
 Coeff-Com:  0.277D-02 0.185D+00 0.812D+00
 Coeff:      0.277D-02 0.185D+00 0.812D+00
 Gap=     0.205 Goal=   None    Shift=    0.000
 Gap=     0.210 Goal=   None    Shift=    0.000
 RMSDP=8.91D-07 MaxDP=6.34D-05 DE=-5.39D-07 OVMax= 1.27D-04

 Cycle  12  Pass 1  IDiag  1:
 RMSU=  6.57D-07    CP:  1.00D+00  9.34D-01  8.74D-01
 E= -481.712354639825     Delta-E=       -0.000000036907 Rises=F Damp=F
 DIIS: error= 2.04D-06 at cycle   4 NSaved=   4.
 NSaved= 4 IEnMin= 4 EnMin= -481.712354639825     IErMin= 4 ErrMin= 2.04D-06
 ErrMax= 2.04D-06  0.00D+00 EMaxC= 1.00D-01 BMatC= 1.11D-08 BMatP= 1.31D-07
 IDIUse=1 WtCom= 1.00D+00 WtEn= 0.00D+00
 Coeff-Com: -0.239D-01 0.643D-01 0.355D+00 0.605D+00
 Coeff:     -0.239D-01 0.643D-01 0.355D+00 0.605D+00
 Gap=     0.205 Goal=   None    Shift=    0.000
 Gap=     0.210 Goal=   None    Shift=    0.000
 RMSDP=3.06D-07 MaxDP=1.55D-05 DE=-3.69D-08 OVMax= 2.95D-05

 Cycle  13  Pass 1  IDiag  1:
 RMSU=  2.92D-07    CP:  1.00D+00  9.38D-01  8.77D-01  8.75D-01
 E= -481.712354644035     Delta-E=       -0.000000004211 Rises=F Damp=F
 DIIS: error= 1.01D-06 at cycle   5 NSaved=   5.
 NSaved= 5 IEnMin= 5 EnMin= -481.712354644035     IErMin= 5 ErrMin= 1.01D-06
 ErrMax= 1.01D-06  0.00D+00 EMaxC= 1.00D-01 BMatC= 2.30D-09 BMatP= 1.11D-08
 IDIUse=1 WtCom= 1.00D+00 WtEn= 0.00D+00
 Coeff-Com: -0.582D-02-0.530D-01-0.229D+00 0.109D+00 0.118D+01
 Coeff:     -0.582D-02-0.530D-01-0.229D+00 0.109D+00 0.118D+01
 Gap=     0.205 Goal=   None    Shift=    0.000
 Gap=     0.210 Goal=   None    Shift=    0.000
 RMSDP=3.16D-07 MaxDP=1.90D-05 DE=-4.21D-09 OVMax= 4.03D-05

 Cycle  14  Pass 1  IDiag  1:
 RMSU=  1.64D-07    CP:  1.00D+00  9.38D-01  8.86D-01  1.22D+00  1.47D+00
 E= -481.712354646091     Delta-E=       -0.000000002056 Rises=F Damp=F
 DIIS: error= 7.15D-07 at cycle   6 NSaved=   6.
 NSaved= 6 IEnMin= 6 EnMin= -481.712354646091     IErMin= 6 ErrMin= 7.15D-07
 ErrMax= 7.15D-07  0.00D+00 EMaxC= 1.00D-01 BMatC= 1.27D-09 BMatP= 2.30D-09
 IDIUse=1 WtCom= 1.00D+00 WtEn= 0.00D+00
 Coeff-Com:  0.113D-02-0.421D-01-0.196D+00-0.241D-01 0.735D+00 0.526D+00
 Coeff:      0.113D-02-0.421D-01-0.196D+00-0.241D-01 0.735D+00 0.526D+00
 Gap=     0.205 Goal=   None    Shift=    0.000
 Gap=     0.210 Goal=   None    Shift=    0.000
 RMSDP=9.18D-08 MaxDP=8.49D-06 DE=-2.06D-09 OVMax= 1.52D-05

 Cycle  15  Pass 1  IDiag  1:
 RMSU=  6.84D-08    CP:  1.00D+00  9.39D-01  8.86D-01  1.28D+00  1.63D+00
                    CP:  8.82D-01
 E= -481.712354646598     Delta-E=       -0.000000000507 Rises=F Damp=F
 DIIS: error= 3.57D-07 at cycle   7 NSaved=   7.
 NSaved= 7 IEnMin= 7 EnMin= -481.712354646598     IErMin= 7 ErrMin= 3.57D-07
 ErrMax= 3.57D-07  0.00D+00 EMaxC= 1.00D-01 BMatC= 2.28D-10 BMatP= 1.27D-09
 IDIUse=1 WtCom= 1.00D+00 WtEn= 0.00D+00
 Coeff-Com:  0.168D-02-0.151D-01-0.724D-01-0.485D-01 0.168D+00 0.281D+00
 Coeff-Com:  0.685D+00
 Coeff:      0.168D-02-0.151D-01-0.724D-01-0.485D-01 0.168D+00 0.281D+00
 Coeff:      0.685D+00
 Gap=     0.205 Goal=   None    Shift=    0.000
 Gap=     0.210 Goal=   None    Shift=    0.000
 RMSDP=6.62D-08 MaxDP=5.45D-06 DE=-5.07D-10 OVMax= 1.23D-05

 Cycle  16  Pass 1  IDiag  1:
 RMSU=  3.24D-08    CP:  1.00D+00  9.39D-01  8.88D-01  1.33D+00  1.74D+00
                    CP:  1.02D+00  1.26D+00
 E= -481.712354646769     Delta-E=       -0.000000000171 Rises=F Damp=F
 DIIS: error= 2.45D-07 at cycle   8 NSaved=   8.
 NSaved= 8 IEnMin= 8 EnMin= -481.712354646769     IErMin= 8 ErrMin= 2.45D-07
 ErrMax= 2.45D-07  0.00D+00 EMaxC= 1.00D-01 BMatC= 5.80D-11 BMatP= 2.28D-10
 IDIUse=1 WtCom= 1.00D+00 WtEn= 0.00D+00
 Coeff-Com: -0.740D-03 0.243D-01 0.114D+00 0.214D-01-0.389D+00-0.334D+00
 Coeff-Com:  0.536D-01 0.151D+01
 Coeff:     -0.740D-03 0.243D-01 0.114D+00 0.214D-01-0.389D+00-0.334D+00
 Coeff:      0.536D-01 0.151D+01
 Gap=     0.205 Goal=   None    Shift=    0.000
 Gap=     0.210 Goal=   None    Shift=    0.000
 RMSDP=8.13D-08 MaxDP=7.26D-06 DE=-1.71D-10 OVMax= 1.60D-05

 Cycle  17  Pass 1  IDiag  1:
 RMSU=  2.43D-08    CP:  1.00D+00  9.39D-01  8.89D-01  1.36D+00  1.86D+00
                    CP:  1.20D+00  2.05D+00  1.87D+00
 E= -481.712354646907     Delta-E=       -0.000000000138 Rises=F Damp=F
 DIIS: error= 9.86D-08 at cycle   9 NSaved=   9.
 NSaved= 9 IEnMin= 9 EnMin= -481.712354646907     IErMin= 9 ErrMin= 9.86D-08
 ErrMax= 9.86D-08  0.00D+00 EMaxC= 1.00D-01 BMatC= 1.16D-11 BMatP= 5.80D-11
 IDIUse=1 WtCom= 1.00D+00 WtEn= 0.00D+00
 Coeff-Com: -0.681D-03 0.137D-01 0.642D-01 0.190D-01-0.206D+00-0.217D+00
 Coeff-Com: -0.104D+00 0.638D+00 0.792D+00
 Coeff:     -0.681D-03 0.137D-01 0.642D-01 0.190D-01-0.206D+00-0.217D+00
 Coeff:     -0.104D+00 0.638D+00 0.792D+00
 Gap=     0.205 Goal=   None    Shift=    0.000
 Gap=     0.210 Goal=   None    Shift=    0.000
 RMSDP=2.89D-08 MaxDP=2.60D-06 DE=-1.38D-10 OVMax= 5.71D-06

 Cycle  18  Pass 1  IDiag  1:
 RMSU=  8.98D-09    CP:  1.00D+00  9.39D-01  8.89D-01  1.37D+00  1.90D+00
                    CP:  1.25D+00  2.31D+00  2.18D+00  1.28D+00
 E= -481.712354646922     Delta-E=       -0.000000000015 Rises=F Damp=F
 DIIS: error= 2.83D-08 at cycle  10 NSaved=  10.
 NSaved=10 IEnMin=10 EnMin= -481.712354646922     IErMin=10 ErrMin= 2.83D-08
 ErrMax= 2.83D-08  0.00D+00 EMaxC= 1.00D-01 BMatC= 1.50D-12 BMatP= 1.16D-11
 IDIUse=1 WtCom= 1.00D+00 WtEn= 0.00D+00
 Coeff-Com: -0.214D-05-0.179D-02-0.827D-02 0.149D-03 0.319D-01 0.128D-01
 Coeff-Com: -0.184D-01-0.174D+00 0.181D+00 0.976D+00
 Coeff:     -0.214D-05-0.179D-02-0.827D-02 0.149D-03 0.319D-01 0.128D-01
 Coeff:     -0.184D-01-0.174D+00 0.181D+00 0.976D+00
 Gap=     0.205 Goal=   None    Shift=    0.000
 Gap=     0.210 Goal=   None    Shift=    0.000
 RMSDP=9.72D-09 MaxDP=8.28D-07 DE=-1.55D-11 OVMax= 1.74D-06

 SCF Done:  E(UPBE1PBE) =  -481.712354647     A.U. after   18 cycles
            NFock= 18  Conv=0.97D-08     -V/T= 1.9992
 <Sx>= 0.0000 <Sy>= 0.0000 <Sz>= 0.5000 <S**2>= 0.7549 S= 0.5025
 <L.S>=  0.00000000000    
 KE= 4.821195013470D+02 PE=-2.511511755259D+03 EE= 8.530319867963D+02
 Annihilation of the first spin contaminant:
 S**2 before annihilation     0.7549,   after     0.7500
 Leave Link  502 at Sun Jun 23 21:43:05 2019, MaxMem=  8053063680 cpu:               0.0 elap:              60.7
 (Enter /data2/g16/g16/l601.exe)
 Copying SCF densities to generalized density rwf, IOpCl= 1 IROHF=0.

 **********************************************************************

            Population analysis using the SCF Density.

 **********************************************************************

 Orbital symmetries:
 Alpha Orbitals:
       Occupied  (A) (A) (A) (A) (A) (A) (A) (A) (A) (A) (A) (A)
                 (A) (A) (A) (A) (A) (A) (A) (A) (A) (A) (A) (A)
                 (A) (A) (A) (A) (A) (A) (A) (A) (A) (A) (A) (A)
                 (A) (A) (A) (A) (A) (A) (A)
       Virtual   (A) (A) (A) (A) (A) (A) (A) (A) (A) (A) (A) (A)
                 (A) (A) (A) (A) (A) (A) (A) (A) (A) (A) (A) (A)
                 (A) (A) (A) (A) (A) (A) (A) (A) (A) (A) (A) (A)
                 (A) (A) (A) (A) (A) (A) (A) (A) (A) (A) (A) (A)
                 (A) (A) (A) (A) (A) (A) (A) (A) (A) (A) (A) (A)
                 (A) (A) (A) (A) (A) (A) (A) (A) (A) (A) (A) (A)
                 (A) (A) (A) (A) (A) (A) (A) (A) (A) (A) (A) (A)
                 (A) (A) (A) (A) (A) (A) (A) (A) (A) (A) (A) (A)
                 (A) (A) (A) (A) (A) (A) (A) (A) (A) (A) (A) (A)
                 (A) (A) (A) (A) (A) (A) (A) (A) (A) (A) (A) (A)
                 (A) (A) (A) (A) (A) (A) (A) (A) (A) (A) (A) (A)
                 (A) (A) (A) (A) (A) (A) (A) (A) (A) (A) (A) (A)
                 (A) (A) (A) (A) (A) (A) (A) (A) (A) (A) (A) (A)
                 (A) (A) (A) (A) (A) (A) (A) (A) (A) (A) (A) (A)
                 (A) (A) (A) (A) (A) (A) (A) (A) (A) (A) (A) (A)
                 (A) (A) (A) (A) (A) (A) (A) (A) (A) (A) (A) (A)
                 (A) (A) (A) (A) (A) (A) (A) (A) (A) (A) (A) (A)
                 (A) (A) (A) (A) (A) (A) (A) (A) (A) (A) (A) (A)
                 (A) (A) (A) (A) (A) (A) (A) (A) (A) (A) (A) (A)
                 (A) (A) (A) (A) (A) (A) (A) (A) (A) (A) (A) (A)
                 (A) (A) (A) (A) (A) (A) (A) (A) (A) (A) (A) (A)
                 (A) (A) (A) (A) (A) (A) (A) (A) (A) (A) (A) (A)
                 (A) (A) (A) (A)
 Beta  Orbitals:
       Occupied  (A) (A) (A) (A) (A) (A) (A) (A) (A) (A) (A) (A)
                 (A) (A) (A) (A) (A) (A) (A) (A) (A) (A) (A) (A)
                 (A) (A) (A) (A) (A) (A) (A) (A) (A) (A) (A) (A)
                 (A) (A) (A) (A) (A) (A)
       Virtual   (A) (A) (A) (A) (A) (A) (A) (A) (A) (A) (A) (A)
                 (A) (A) (A) (A) (A) (A) (A) (A) (A) (A) (A) (A)
                 (A) (A) (A) (A) (A) (A) (A) (A) (A) (A) (A) (A)
                 (A) (A) (A) (A) (A) (A) (A) (A) (A) (A) (A) (A)
                 (A) (A) (A) (A) (A) (A) (A) (A) (A) (A) (A) (A)
                 (A) (A) (A) (A) (A) (A) (A) (A) (A) (A) (A) (A)
                 (A) (A) (A) (A) (A) (A) (A) (A) (A) (A) (A) (A)
                 (A) (A) (A) (A) (A) (A) (A) (A) (A) (A) (A) (A)
                 (A) (A) (A) (A) (A) (A) (A) (A) (A) (A) (A) (A)
                 (A) (A) (A) (A) (A) (A) (A) (A) (A) (A) (A) (A)
                 (A) (A) (A) (A) (A) (A) (A) (A) (A) (A) (A) (A)
                 (A) (A) (A) (A) (A) (A) (A) (A) (A) (A) (A) (A)
                 (A) (A) (A) (A) (A) (A) (A) (A) (A) (A) (A) (A)
                 (A) (A) (A) (A) (A) (A) (A) (A) (A) (A) (A) (A)
                 (A) (A) (A) (A) (A) (A) (A) (A) (A) (A) (A) (A)
                 (A) (A) (A) (A) (A) (A) (A) (A) (A) (A) (A) (A)
                 (A) (A) (A) (A) (A) (A) (A) (A) (A) (A) (A) (A)
                 (A) (A) (A) (A) (A) (A) (A) (A) (A) (A) (A) (A)
                 (A) (A) (A) (A) (A) (A) (A) (A) (A) (A) (A) (A)
                 (A) (A) (A) (A) (A) (A) (A) (A) (A) (A) (A) (A)
                 (A) (A) (A) (A) (A) (A) (A) (A) (A) (A) (A) (A)
                 (A) (A) (A) (A) (A) (A) (A) (A) (A) (A) (A) (A)
                 (A) (A) (A) (A) (A)
 The electronic state is 2-A.
 Alpha  occ. eigenvalues --  -19.21757 -14.48257 -10.27978 -10.27961 -10.24086
 Alpha  occ. eigenvalues --  -10.20295 -10.20013 -10.19321 -10.18929 -10.18685
 Alpha  occ. eigenvalues --  -10.18187  -1.14109  -0.93480  -0.85627  -0.81647
 Alpha  occ. eigenvalues --   -0.77612  -0.75717  -0.75052  -0.71767  -0.66125
 Alpha  occ. eigenvalues --   -0.59642  -0.56799  -0.52274  -0.51208  -0.49712
 Alpha  occ. eigenvalues --   -0.48506  -0.47351  -0.46358  -0.45293  -0.44639
 Alpha  occ. eigenvalues --   -0.43817  -0.43369  -0.43089  -0.42142  -0.41594
 Alpha  occ. eigenvalues --   -0.39455  -0.37488  -0.37065  -0.35191  -0.33994
 Alpha  occ. eigenvalues --   -0.26242  -0.24049  -0.19333
 Alpha virt. eigenvalues --    0.01142   0.03066   0.03630   0.04204   0.04972
 Alpha virt. eigenvalues --    0.05940   0.06147   0.06363   0.07413   0.08724
 Alpha virt. eigenvalues --    0.09132   0.09366   0.09505   0.10096   0.10696
 Alpha virt. eigenvalues --    0.10870   0.11929   0.12691   0.13526   0.14323
 Alpha virt. eigenvalues --    0.14910   0.15388   0.15637   0.16572   0.17466
 Alpha virt. eigenvalues --    0.17858   0.18308   0.19215   0.19931   0.20851
 Alpha virt. eigenvalues --    0.21486   0.22609   0.22953   0.23896   0.24528
 Alpha virt. eigenvalues --    0.25531   0.26199   0.27256   0.27544   0.27971
 Alpha virt. eigenvalues --    0.28922   0.29703   0.30411   0.30825   0.31280
 Alpha virt. eigenvalues --    0.32213   0.32731   0.33944   0.34410   0.35259
 Alpha virt. eigenvalues --    0.35869   0.36402   0.36963   0.38201   0.39707
 Alpha virt. eigenvalues --    0.41843   0.42849   0.44541   0.46158   0.48178
 Alpha virt. eigenvalues --    0.49299   0.51015   0.51567   0.52711   0.54083
 Alpha virt. eigenvalues --    0.55923   0.56764   0.57307   0.57898   0.59713
 Alpha virt. eigenvalues --    0.61276   0.62144   0.62833   0.63440   0.64956
 Alpha virt. eigenvalues --    0.65806   0.66199   0.66926   0.68536   0.69051
 Alpha virt. eigenvalues --    0.70638   0.70987   0.72735   0.75472   0.76493
 Alpha virt. eigenvalues --    0.78126   0.80525   0.80934   0.81343   0.83765
 Alpha virt. eigenvalues --    0.84904   0.86758   0.86894   0.89875   0.90577
 Alpha virt. eigenvalues --    0.91270   0.92574   0.92886   0.93966   0.94620
 Alpha virt. eigenvalues --    0.96046   0.96408   0.97905   0.98157   0.98629
 Alpha virt. eigenvalues --    1.01398   1.02601   1.03234   1.03883   1.07105
 Alpha virt. eigenvalues --    1.07602   1.09214   1.10725   1.11774   1.12215
 Alpha virt. eigenvalues --    1.13404   1.15038   1.15614   1.19352   1.22106
 Alpha virt. eigenvalues --    1.24708   1.26193   1.28192   1.30788   1.35700
 Alpha virt. eigenvalues --    1.36222   1.40139   1.41090   1.45426   1.45958
 Alpha virt. eigenvalues --    1.49734   1.54114   1.56171   1.57409   1.58296
 Alpha virt. eigenvalues --    1.58893   1.59724   1.60586   1.64207   1.66277
 Alpha virt. eigenvalues --    1.66866   1.68315   1.69636   1.70466   1.73048
 Alpha virt. eigenvalues --    1.75701   1.77002   1.78279   1.79857   1.80507
 Alpha virt. eigenvalues --    1.82573   1.83616   1.84587   1.85616   1.86720
 Alpha virt. eigenvalues --    1.88255   1.89125   1.90906   1.92491   1.94478
 Alpha virt. eigenvalues --    1.94796   1.95606   1.96729   1.98189   2.00744
 Alpha virt. eigenvalues --    2.03243   2.04849   2.05623   2.09273   2.10422
 Alpha virt. eigenvalues --    2.13502   2.13845   2.14655   2.17106   2.17556
 Alpha virt. eigenvalues --    2.18513   2.20112   2.25922   2.26539   2.31692
 Alpha virt. eigenvalues --    2.32620   2.35010   2.35675   2.38231   2.41577
 Alpha virt. eigenvalues --    2.46136   2.47413   2.50927   2.53828   2.53941
 Alpha virt. eigenvalues --    2.56040   2.59150   2.60327   2.61082   2.62767
 Alpha virt. eigenvalues --    2.64798   2.65898   2.71987   2.72734   2.75148
 Alpha virt. eigenvalues --    2.75885   2.77265   2.78805   2.79763   2.85480
 Alpha virt. eigenvalues --    2.85666   2.88873   2.89241   2.94029   2.96729
 Alpha virt. eigenvalues --    2.98035   2.99321   3.00007   3.01780   3.02427
 Alpha virt. eigenvalues --    3.02691   3.04603   3.05634   3.07142   3.08472
 Alpha virt. eigenvalues --    3.08719   3.10458   3.10558   3.15902   3.20545
 Alpha virt. eigenvalues --    3.22351   3.23320   3.24248   3.27690   3.39850
 Alpha virt. eigenvalues --    3.42673   3.45017   3.49600   3.50583   3.52407
 Alpha virt. eigenvalues --    3.52676   3.54722   3.57089   3.58897   3.60189
 Alpha virt. eigenvalues --    3.64625   3.65629   3.67181   3.72048   3.75069
 Alpha virt. eigenvalues --    3.98300   4.54912   4.64930   4.67638   4.80878
 Alpha virt. eigenvalues --    4.86276   4.87414   4.94972   5.00853   5.11222
 Alpha virt. eigenvalues --    5.48165   6.07159  58.51529  58.51672  58.53176
 Alpha virt. eigenvalues --   58.59266  58.60258  58.60616  58.60922  58.61258
 Alpha virt. eigenvalues --   58.61450  95.61846 106.39547
  Beta  occ. eigenvalues --  -19.20279 -14.47097 -10.28046 -10.28027 -10.24089
  Beta  occ. eigenvalues --  -10.20279 -10.20014 -10.19268 -10.18898 -10.18641
  Beta  occ. eigenvalues --  -10.18140  -1.11452  -0.92650  -0.85498  -0.81253
  Beta  occ. eigenvalues --   -0.76900  -0.75566  -0.74946  -0.70997  -0.65844
  Beta  occ. eigenvalues --   -0.59124  -0.56334  -0.51736  -0.49643  -0.49196
  Beta  occ. eigenvalues --   -0.48320  -0.46743  -0.45978  -0.44931  -0.44459
  Beta  occ. eigenvalues --   -0.43638  -0.43245  -0.42475  -0.41561  -0.39959
  Beta  occ. eigenvalues --   -0.39133  -0.37300  -0.35115  -0.33967  -0.33017
  Beta  occ. eigenvalues --   -0.25079  -0.23866
  Beta virt. eigenvalues --   -0.02832   0.01244   0.03097   0.03660   0.04298
  Beta virt. eigenvalues --    0.05043   0.05977   0.06189   0.06412   0.07533
  Beta virt. eigenvalues --    0.08816   0.09218   0.09413   0.09628   0.10172
  Beta virt. eigenvalues --    0.10740   0.10937   0.12220   0.12780   0.13721
  Beta virt. eigenvalues --    0.14369   0.14982   0.15458   0.16028   0.16770
  Beta virt. eigenvalues --    0.17660   0.17968   0.18393   0.19364   0.20111
  Beta virt. eigenvalues --    0.21058   0.21645   0.22735   0.23292   0.24251
  Beta virt. eigenvalues --    0.24773   0.25800   0.26481   0.27409   0.27703
  Beta virt. eigenvalues --    0.28215   0.29056   0.30058   0.30522   0.30928
  Beta virt. eigenvalues --    0.31567   0.32317   0.33028   0.34204   0.34525
  Beta virt. eigenvalues --    0.35471   0.36136   0.36472   0.37125   0.38257
  Beta virt. eigenvalues --    0.39768   0.42423   0.43065   0.44658   0.46242
  Beta virt. eigenvalues --    0.48243   0.49430   0.51258   0.51726   0.52882
  Beta virt. eigenvalues --    0.54352   0.56164   0.56936   0.57370   0.58111
  Beta virt. eigenvalues --    0.59946   0.61483   0.62315   0.63023   0.63591
  Beta virt. eigenvalues --    0.65110   0.65965   0.66368   0.67042   0.68669
  Beta virt. eigenvalues --    0.69257   0.70832   0.71248   0.72999   0.75704
  Beta virt. eigenvalues --    0.76595   0.78584   0.80679   0.81150   0.81594
  Beta virt. eigenvalues --    0.84003   0.85087   0.86884   0.86990   0.89923
  Beta virt. eigenvalues --    0.90612   0.91339   0.92773   0.93102   0.94069
  Beta virt. eigenvalues --    0.95044   0.96098   0.96542   0.98087   0.98255
  Beta virt. eigenvalues --    0.99313   1.01615   1.02711   1.03591   1.04090
  Beta virt. eigenvalues --    1.07335   1.07720   1.09397   1.10807   1.11864
  Beta virt. eigenvalues --    1.12639   1.14000   1.15342   1.16043   1.20429
  Beta virt. eigenvalues --    1.22213   1.25774   1.26541   1.29327   1.30901
  Beta virt. eigenvalues --    1.36438   1.36748   1.40316   1.41475   1.45647
  Beta virt. eigenvalues --    1.46072   1.49804   1.54221   1.56266   1.57499
  Beta virt. eigenvalues --    1.58344   1.59000   1.59809   1.60689   1.64476
  Beta virt. eigenvalues --    1.66446   1.67323   1.69137   1.69820   1.70829
  Beta virt. eigenvalues --    1.73177   1.75859   1.77181   1.78430   1.79953
  Beta virt. eigenvalues --    1.80571   1.82667   1.83652   1.84660   1.85715
  Beta virt. eigenvalues --    1.86787   1.88391   1.89202   1.91120   1.92712
  Beta virt. eigenvalues --    1.94578   1.94889   1.95808   1.96941   1.98439
  Beta virt. eigenvalues --    2.00918   2.03456   2.05113   2.06202   2.09367
  Beta virt. eigenvalues --    2.10608   2.13688   2.14268   2.15756   2.17599
  Beta virt. eigenvalues --    2.17727   2.18875   2.20422   2.26101   2.26906
  Beta virt. eigenvalues --    2.31987   2.32787   2.35569   2.36015   2.38263
  Beta virt. eigenvalues --    2.41866   2.46284   2.47594   2.50997   2.54073
  Beta virt. eigenvalues --    2.55110   2.56388   2.59376   2.60430   2.61489
  Beta virt. eigenvalues --    2.63334   2.65264   2.66517   2.72106   2.72832
  Beta virt. eigenvalues --    2.75354   2.76486   2.77523   2.79052   2.79935
  Beta virt. eigenvalues --    2.86275   2.88550   2.89560   2.91145   2.94496
  Beta virt. eigenvalues --    2.96785   2.98117   2.99492   3.00293   3.02076
  Beta virt. eigenvalues --    3.02698   3.03119   3.04728   3.05713   3.07250
  Beta virt. eigenvalues --    3.08657   3.08833   3.10509   3.10908   3.15990
  Beta virt. eigenvalues --    3.21017   3.22938   3.24294   3.27233   3.28113
  Beta virt. eigenvalues --    3.39875   3.42750   3.45453   3.49675   3.50642
  Beta virt. eigenvalues --    3.52444   3.52737   3.54834   3.57131   3.58965
  Beta virt. eigenvalues --    3.60225   3.64649   3.65703   3.67243   3.72084
  Beta virt. eigenvalues --    3.75124   3.99970   4.55034   4.64994   4.67829
  Beta virt. eigenvalues --    4.80896   4.86372   4.87512   4.95069   5.00911
  Beta virt. eigenvalues --    5.11230   5.49967   6.09758  58.51473  58.51614
  Beta virt. eigenvalues --   58.53175  58.59266  58.60304  58.60644  58.60961
  Beta virt. eigenvalues --   58.61273  58.61487  95.62752 106.40728
          Condensed to atoms (all electrons):
               1          2          3          4          5          6
     1  C    5.396105   0.300768  -0.084753   0.019825  -0.212815   0.009039
     2  C    0.300768   5.240548   0.708916  -0.088495  -0.050906  -0.012427
     3  C   -0.084753   0.708916   5.151633   0.203652   0.357680  -0.061475
     4  C    0.019825  -0.088495   0.203652   5.048861  -0.081348   0.011794
     5  C   -0.212815  -0.050906   0.357680  -0.081348   5.419430   0.299332
     6  C    0.009039  -0.012427  -0.061475   0.011794   0.299332   4.989550
     7  C    0.016837   0.000174  -0.082791  -0.003089   0.274868  -0.069665
     8  C    0.248781  -0.064149   0.006038  -0.002524   0.011211  -0.003123
     9  C    0.299195  -0.074343  -0.016168   0.001854   0.014569   0.007620
    10  N    0.194490  -0.071760  -0.009921   0.007042   0.154640  -0.081360
    11  O   -0.094334   0.003666   0.015455  -0.003154  -0.102515   0.003506
    12  H   -0.072073   0.421740  -0.030737  -0.003873   0.016688  -0.000792
    13  H   -0.000994   0.006060  -0.043783   0.421171  -0.004716   0.000855
    14  H    0.001936   0.015309  -0.060298   0.428777  -0.003662   0.000020
    15  H    0.001840  -0.000652   0.009606  -0.001732  -0.046743   0.431736
    16  H   -0.001518   0.001035  -0.008758   0.003202  -0.042689   0.421177
    17  H   -0.000548   0.000897   0.000046   0.000353  -0.051291   0.426672
    18  H    0.000826  -0.001196   0.015255  -0.001302  -0.060569  -0.002098
    19  H    0.006999  -0.002740  -0.011229   0.001106  -0.048852   0.009110
    20  H   -0.003277   0.002720  -0.011589   0.001954  -0.049312  -0.002786
    21  H   -0.067537   0.029576   0.005108   0.000133  -0.004198   0.000201
    22  H   -0.044491   0.005330  -0.001252   0.000011   0.003351  -0.000034
    23  H   -0.062389  -0.010566   0.002205  -0.000669   0.001881   0.000077
    24  H   -0.048298  -0.006495   0.005237  -0.000477  -0.006105   0.000482
    25  H   -0.047322   0.008327   0.002083  -0.000086   0.000590  -0.000327
    26  H   -0.064028   0.005756   0.003909   0.000001  -0.002545   0.000049
    27  H    0.001282  -0.025295  -0.062177   0.424435  -0.006366   0.002222
               7          8          9         10         11         12
     1  C    0.016837   0.248781   0.299195   0.194490  -0.094334  -0.072073
     2  C    0.000174  -0.064149  -0.074343  -0.071760   0.003666   0.421740
     3  C   -0.082791   0.006038  -0.016168  -0.009921   0.015455  -0.030737
     4  C   -0.003089  -0.002524   0.001854   0.007042  -0.003154  -0.003873
     5  C    0.274868   0.011211   0.014569   0.154640  -0.102515   0.016688
     6  C   -0.069665  -0.003123   0.007620  -0.081360   0.003506  -0.000792
     7  C    5.019913   0.002366  -0.005532  -0.074066   0.001867  -0.001846
     8  C    0.002366   5.014410  -0.062821  -0.041719   0.002174   0.004826
     9  C   -0.005532  -0.062821   5.010574  -0.113205   0.004864   0.003644
    10  N   -0.074066  -0.041719  -0.113205   7.080994  -0.044161  -0.000101
    11  O    0.001867   0.002174   0.004864  -0.044161   8.721382  -0.000736
    12  H   -0.001846   0.004826   0.003644  -0.000101  -0.000736   0.492900
    13  H   -0.000541   0.000138   0.000073   0.001472  -0.000104   0.000204
    14  H    0.002706   0.000352  -0.000224  -0.003465   0.000121   0.000884
    15  H   -0.002727  -0.000027  -0.000228  -0.015584   0.009193   0.000007
    16  H   -0.001667   0.000077   0.000223   0.010860  -0.001582  -0.000005
    17  H    0.008534   0.000004  -0.000305  -0.003223   0.000612  -0.000043
    18  H    0.431059  -0.000293   0.000162  -0.010255   0.009117   0.000012
    19  H    0.432455  -0.000484  -0.000222  -0.008976   0.001742  -0.000092
    20  H    0.425368   0.000144   0.000269   0.012256  -0.001480   0.000001
    21  H    0.000164   0.422113  -0.001814  -0.002636  -0.001549   0.000323
    22  H   -0.000407   0.426916  -0.000421  -0.013286   0.009162  -0.000032
    23  H   -0.000903   0.433753   0.008767   0.006623  -0.000065   0.000383
    24  H    0.000165   0.008626   0.427710  -0.002978  -0.000050   0.000176
    25  H    0.000088  -0.002159   0.427929  -0.016045   0.009230  -0.000069
    26  H    0.000137  -0.000629   0.426281   0.006302  -0.001312   0.000547
    27  H    0.001048  -0.000481   0.001662   0.000974  -0.000033  -0.000340
              13         14         15         16         17         18
     1  C   -0.000994   0.001936   0.001840  -0.001518  -0.000548   0.000826
     2  C    0.006060   0.015309  -0.000652   0.001035   0.000897  -0.001196
     3  C   -0.043783  -0.060298   0.009606  -0.008758   0.000046   0.015255
     4  C    0.421171   0.428777  -0.001732   0.003202   0.000353  -0.001302
     5  C   -0.004716  -0.003662  -0.046743  -0.042689  -0.051291  -0.060569
     6  C    0.000855   0.000020   0.431736   0.421177   0.426672  -0.002098
     7  C   -0.000541   0.002706  -0.002727  -0.001667   0.008534   0.431059
     8  C    0.000138   0.000352  -0.000027   0.000077   0.000004  -0.000293
     9  C    0.000073  -0.000224  -0.000228   0.000223  -0.000305   0.000162
    10  N    0.001472  -0.003465  -0.015584   0.010860  -0.003223  -0.010255
    11  O   -0.000104   0.000121   0.009193  -0.001582   0.000612   0.009117
    12  H    0.000204   0.000884   0.000007  -0.000005  -0.000043   0.000012
    13  H    0.539522  -0.027337  -0.000053   0.000515   0.000067  -0.000097
    14  H   -0.027337   0.503164  -0.000001  -0.000023  -0.000016   0.000019
    15  H   -0.000053  -0.000001   0.506628  -0.027692  -0.020442   0.002365
    16  H    0.000515  -0.000023  -0.027692   0.543618  -0.026692  -0.000330
    17  H    0.000067  -0.000016  -0.020442  -0.026692   0.536757   0.000011
    18  H   -0.000097   0.000019   0.002365  -0.000330   0.000011   0.508682
    19  H    0.000194  -0.000087   0.000003   0.000089  -0.000219  -0.016779
    20  H    0.001945  -0.000465  -0.000421   0.001361   0.000082  -0.024634
    21  H   -0.000000  -0.000000   0.000000  -0.000000  -0.000000   0.000000
    22  H   -0.000000  -0.000000  -0.000001   0.000000  -0.000000  -0.000000
    23  H    0.000000  -0.000005  -0.000000  -0.000000  -0.000001  -0.000000
    24  H   -0.000000  -0.000002   0.000027  -0.000001  -0.000283  -0.000001
    25  H   -0.000000   0.000000  -0.000017  -0.000001  -0.000054  -0.000001
    26  H    0.000000  -0.000001  -0.000000  -0.000001   0.000004   0.000000
    27  H   -0.020317  -0.012466   0.000067  -0.000141   0.000146  -0.000027
              19         20         21         22         23         24
     1  C    0.006999  -0.003277  -0.067537  -0.044491  -0.062389  -0.048298
     2  C   -0.002740   0.002720   0.029576   0.005330  -0.010566  -0.006495
     3  C   -0.011229  -0.011589   0.005108  -0.001252   0.002205   0.005237
     4  C    0.001106   0.001954   0.000133   0.000011  -0.000669  -0.000477
     5  C   -0.048852  -0.049312  -0.004198   0.003351   0.001881  -0.006105
     6  C    0.009110  -0.002786   0.000201  -0.000034   0.000077   0.000482
     7  C    0.432455   0.425368   0.000164  -0.000407  -0.000903   0.000165
     8  C   -0.000484   0.000144   0.422113   0.426916   0.433753   0.008626
     9  C   -0.000222   0.000269  -0.001814  -0.000421   0.008767   0.427710
    10  N   -0.008976   0.012256  -0.002636  -0.013286   0.006623  -0.002978
    11  O    0.001742  -0.001480  -0.001549   0.009162  -0.000065  -0.000050
    12  H   -0.000092   0.000001   0.000323  -0.000032   0.000383   0.000176
    13  H    0.000194   0.001945  -0.000000  -0.000000   0.000000  -0.000000
    14  H   -0.000087  -0.000465  -0.000000  -0.000000  -0.000005  -0.000002
    15  H    0.000003  -0.000421   0.000000  -0.000001  -0.000000   0.000027
    16  H    0.000089   0.001361  -0.000000   0.000000  -0.000000  -0.000001
    17  H   -0.000219   0.000082  -0.000000  -0.000000  -0.000001  -0.000283
    18  H   -0.016779  -0.024634   0.000000  -0.000000  -0.000000  -0.000001
    19  H    0.525682  -0.026161   0.000002  -0.000027   0.000061  -0.000001
    20  H   -0.026161   0.552103  -0.000000  -0.000000  -0.000000  -0.000002
    21  H    0.000002  -0.000000   0.541264  -0.024197  -0.027902   0.000184
    22  H   -0.000027  -0.000000  -0.024197   0.501778  -0.019311  -0.000082
    23  H    0.000061  -0.000000  -0.027902  -0.019311   0.532526  -0.000206
    24  H   -0.000001  -0.000002   0.000184  -0.000082  -0.000206   0.542836
    25  H   -0.000001   0.000000  -0.000423   0.001576  -0.000077  -0.021961
    26  H    0.000000  -0.000000   0.001377  -0.000119  -0.000025  -0.023718
    27  H    0.000000   0.000074  -0.000002   0.000001   0.000008   0.000123
              25         26         27
     1  C   -0.047322  -0.064028   0.001282
     2  C    0.008327   0.005756  -0.025295
     3  C    0.002083   0.003909  -0.062177
     4  C   -0.000086   0.000001   0.424435
     5  C    0.000590  -0.002545  -0.006366
     6  C   -0.000327   0.000049   0.002222
     7  C    0.000088   0.000137   0.001048
     8  C   -0.002159  -0.000629  -0.000481
     9  C    0.427929   0.426281   0.001662
    10  N   -0.016045   0.006302   0.000974
    11  O    0.009230  -0.001312  -0.000033
    12  H   -0.000069   0.000547  -0.000340
    13  H   -0.000000   0.000000  -0.020317
    14  H    0.000000  -0.000001  -0.012466
    15  H   -0.000017  -0.000000   0.000067
    16  H   -0.000001  -0.000001  -0.000141
    17  H   -0.000054   0.000004   0.000146
    18  H   -0.000001   0.000000  -0.000027
    19  H   -0.000001   0.000000   0.000000
    20  H    0.000000  -0.000000   0.000074
    21  H   -0.000423   0.001377  -0.000002
    22  H    0.001576  -0.000119   0.000001
    23  H   -0.000077  -0.000025   0.000008
    24  H   -0.021961  -0.023718   0.000123
    25  H    0.516532  -0.024788  -0.000005
    26  H   -0.024788   0.546295  -0.000002
    27  H   -0.000005  -0.000002   0.561657
          Atomic-Atomic Spin Densities.
               1          2          3          4          5          6
     1  C   -0.035899   0.001449  -0.003619  -0.000549   0.001410  -0.003540
     2  C    0.001449   0.017834   0.001176  -0.000390  -0.001447   0.001469
     3  C   -0.003619   0.001176  -0.003761   0.000898   0.003925   0.005566
     4  C   -0.000549  -0.000390   0.000898  -0.000330  -0.000402   0.000869
     5  C    0.001410  -0.001447   0.003925  -0.000402  -0.038608  -0.003119
     6  C   -0.003540   0.001469   0.005566   0.000869  -0.003119   0.067383
     7  C    0.005182   0.000042  -0.000924  -0.002720  -0.009220  -0.017158
     8  C   -0.009148   0.007922  -0.000697  -0.000145   0.001308  -0.001116
     9  C    0.000886  -0.002098   0.003221  -0.000084  -0.001583   0.005424
    10  N    0.001473  -0.016637  -0.013225   0.003049   0.017812  -0.039423
    11  O    0.005375   0.002940  -0.000082  -0.000521   0.000626   0.013745
    12  H   -0.000042  -0.000103   0.000074  -0.000047  -0.000096   0.000060
    13  H    0.000008  -0.000044   0.000053  -0.000057   0.000029  -0.000095
    14  H   -0.000022   0.000143  -0.000316   0.000332   0.000053   0.000029
    15  H   -0.000014  -0.000005  -0.000047   0.000010   0.000491  -0.000348
    16  H    0.000158  -0.000236  -0.000353  -0.000077   0.000004  -0.002988
    17  H    0.000154  -0.000173  -0.000218   0.000017   0.000225  -0.001787
    18  H    0.000065   0.000003  -0.000110  -0.000015   0.000516  -0.000318
    19  H   -0.000295  -0.000088   0.000095   0.000151   0.000673   0.000181
    20  H   -0.000360   0.000297   0.000485   0.000335   0.000771   0.000846
    21  H    0.001111  -0.000342  -0.000027   0.000002  -0.000074   0.000020
    22  H    0.000187   0.000195   0.000014  -0.000003   0.000008  -0.000022
    23  H    0.000975  -0.001069  -0.000009   0.000018  -0.000169   0.000037
    24  H   -0.000341   0.000044  -0.000121   0.000001   0.000170   0.000020
    25  H    0.000814  -0.000135   0.000008  -0.000002   0.000005   0.000034
    26  H   -0.002042   0.000834  -0.000071   0.000047   0.000043  -0.000211
    27  H   -0.000027  -0.000517   0.000545  -0.000064   0.000119  -0.000254
               7          8          9         10         11         12
     1  C    0.005182  -0.009148   0.000886   0.001473   0.005375  -0.000042
     2  C    0.000042   0.007922  -0.002098  -0.016637   0.002940  -0.000103
     3  C   -0.000924  -0.000697   0.003221  -0.013225  -0.000082   0.000074
     4  C   -0.002720  -0.000145  -0.000084   0.003049  -0.000521  -0.000047
     5  C   -0.009220   0.001308  -0.001583   0.017812   0.000626  -0.000096
     6  C   -0.017158  -0.001116   0.005424  -0.039423   0.013745   0.000060
     7  C    0.066204   0.001316  -0.001950  -0.028260   0.012328  -0.000072
     8  C    0.001316   0.046608  -0.013275  -0.019925   0.007155  -0.000372
     9  C   -0.001950  -0.013275   0.061811  -0.042410   0.015421   0.000484
    10  N   -0.028260  -0.019925  -0.042410   0.999119  -0.389230   0.000514
    11  O    0.012328   0.007155   0.015421  -0.389230   0.832832  -0.000054
    12  H   -0.000072  -0.000372   0.000484   0.000514  -0.000054  -0.001473
    13  H    0.000109   0.000003  -0.000009   0.000033  -0.000001  -0.000001
    14  H   -0.000111  -0.000007   0.000019  -0.000016  -0.000009   0.000017
    15  H   -0.000070  -0.000000   0.000007   0.000076   0.000133   0.000000
    16  H    0.000982   0.000014  -0.000181   0.002516  -0.000664  -0.000000
    17  H    0.000083   0.000009  -0.000211   0.001878  -0.000565  -0.000001
    18  H    0.000380   0.000014  -0.000020  -0.000670   0.000489  -0.000000
    19  H   -0.002901  -0.000055   0.000043   0.002492  -0.000921   0.000001
    20  H   -0.003631  -0.000019   0.000053   0.001174  -0.000527   0.000001
    21  H   -0.000023  -0.002266   0.000396   0.001023  -0.000279  -0.000009
    22  H    0.000040   0.000940  -0.000366  -0.001474   0.000898  -0.000001
    23  H   -0.000105  -0.002728   0.000198   0.003033  -0.000890   0.000022
    24  H   -0.000013  -0.000045   0.000079  -0.000256   0.000213   0.000002
    25  H   -0.000006  -0.000212  -0.000008  -0.000587   0.000527   0.000001
    26  H    0.000037   0.001634  -0.004465   0.003487  -0.001052  -0.000119
    27  H    0.000106   0.000021  -0.000091   0.000277  -0.000015   0.000003
              13         14         15         16         17         18
     1  C    0.000008  -0.000022  -0.000014   0.000158   0.000154   0.000065
     2  C   -0.000044   0.000143  -0.000005  -0.000236  -0.000173   0.000003
     3  C    0.000053  -0.000316  -0.000047  -0.000353  -0.000218  -0.000110
     4  C   -0.000057   0.000332   0.000010  -0.000077   0.000017  -0.000015
     5  C    0.000029   0.000053   0.000491   0.000004   0.000225   0.000516
     6  C   -0.000095   0.000029  -0.000348  -0.002988  -0.001787  -0.000318
     7  C    0.000109  -0.000111  -0.000070   0.000982   0.000083   0.000380
     8  C    0.000003  -0.000007  -0.000000   0.000014   0.000009   0.000014
     9  C   -0.000009   0.000019   0.000007  -0.000181  -0.000211  -0.000020
    10  N    0.000033  -0.000016   0.000076   0.002516   0.001878  -0.000670
    11  O   -0.000001  -0.000009   0.000133  -0.000664  -0.000565   0.000489
    12  H   -0.000001   0.000017   0.000000  -0.000000  -0.000001  -0.000000
    13  H    0.000014  -0.000033  -0.000000   0.000029   0.000002   0.000001
    14  H   -0.000033  -0.000109  -0.000000  -0.000001   0.000000  -0.000000
    15  H   -0.000000  -0.000000  -0.001361   0.000089   0.000078  -0.000002
    16  H    0.000029  -0.000001   0.000089   0.000575   0.000136   0.000025
    17  H    0.000002   0.000000   0.000078   0.000136  -0.001092   0.000002
    18  H    0.000001  -0.000000  -0.000002   0.000025   0.000002  -0.001252
    19  H   -0.000001   0.000004   0.000002  -0.000007   0.000000  -0.000063
    20  H   -0.000032   0.000021   0.000002  -0.000138  -0.000003  -0.000073
    21  H   -0.000000   0.000000   0.000000  -0.000000  -0.000000  -0.000000
    22  H    0.000000  -0.000000  -0.000000   0.000000   0.000000   0.000000
    23  H   -0.000000   0.000000   0.000000  -0.000000  -0.000000  -0.000000
    24  H    0.000000   0.000000   0.000000  -0.000001  -0.000014  -0.000000
    25  H   -0.000000   0.000000  -0.000000  -0.000000  -0.000001  -0.000000
    26  H    0.000000  -0.000000  -0.000000   0.000000   0.000001   0.000000
    27  H    0.000002  -0.000081  -0.000001   0.000027   0.000004   0.000000
              19         20         21         22         23         24
     1  C   -0.000295  -0.000360   0.001111   0.000187   0.000975  -0.000341
     2  C   -0.000088   0.000297  -0.000342   0.000195  -0.001069   0.000044
     3  C    0.000095   0.000485  -0.000027   0.000014  -0.000009  -0.000121
     4  C    0.000151   0.000335   0.000002  -0.000003   0.000018   0.000001
     5  C    0.000673   0.000771  -0.000074   0.000008  -0.000169   0.000170
     6  C    0.000181   0.000846   0.000020  -0.000022   0.000037   0.000020
     7  C   -0.002901  -0.003631  -0.000023   0.000040  -0.000105  -0.000013
     8  C   -0.000055  -0.000019  -0.002266   0.000940  -0.002728  -0.000045
     9  C    0.000043   0.000053   0.000396  -0.000366   0.000198   0.000079
    10  N    0.002492   0.001174   0.001023  -0.001474   0.003033  -0.000256
    11  O   -0.000921  -0.000527  -0.000279   0.000898  -0.000890   0.000213
    12  H    0.000001   0.000001  -0.000009  -0.000001   0.000022   0.000002
    13  H   -0.000001  -0.000032  -0.000000   0.000000  -0.000000   0.000000
    14  H    0.000004   0.000021   0.000000  -0.000000   0.000000   0.000000
    15  H    0.000002   0.000002   0.000000  -0.000000   0.000000   0.000000
    16  H   -0.000007  -0.000138  -0.000000   0.000000  -0.000000  -0.000001
    17  H    0.000000  -0.000003  -0.000000   0.000000  -0.000000  -0.000014
    18  H   -0.000063  -0.000073  -0.000000   0.000000  -0.000000  -0.000000
    19  H   -0.000579   0.000320   0.000000  -0.000001   0.000002   0.000000
    20  H    0.000320   0.000572   0.000000  -0.000000   0.000000   0.000000
    21  H    0.000000   0.000000   0.000247  -0.000149   0.000346   0.000001
    22  H   -0.000001  -0.000000  -0.000149  -0.000760  -0.000267   0.000001
    23  H    0.000002   0.000000   0.000346  -0.000267   0.000309   0.000001
    24  H    0.000000   0.000000   0.000001   0.000001   0.000001  -0.001316
    25  H    0.000000   0.000000   0.000009  -0.000010   0.000005   0.000146
    26  H   -0.000000  -0.000000  -0.000191   0.000043  -0.000026  -0.000030
    27  H   -0.000001  -0.000006  -0.000000   0.000000  -0.000000   0.000001
              25         26         27
     1  C    0.000814  -0.002042  -0.000027
     2  C   -0.000135   0.000834  -0.000517
     3  C    0.000008  -0.000071   0.000545
     4  C   -0.000002   0.000047  -0.000064
     5  C    0.000005   0.000043   0.000119
     6  C    0.000034  -0.000211  -0.000254
     7  C   -0.000006   0.000037   0.000106
     8  C   -0.000212   0.001634   0.000021
     9  C   -0.000008  -0.004465  -0.000091
    10  N   -0.000587   0.003487   0.000277
    11  O    0.000527  -0.001052  -0.000015
    12  H    0.000001  -0.000119   0.000003
    13  H   -0.000000   0.000000   0.000002
    14  H    0.000000  -0.000000  -0.000081
    15  H   -0.000000  -0.000000  -0.000001
    16  H   -0.000000   0.000000   0.000027
    17  H   -0.000001   0.000001   0.000004
    18  H   -0.000000   0.000000   0.000000
    19  H    0.000000  -0.000000  -0.000001
    20  H    0.000000  -0.000000  -0.000006
    21  H    0.000009  -0.000191  -0.000000
    22  H   -0.000010   0.000043   0.000000
    23  H    0.000005  -0.000026  -0.000000
    24  H    0.000146  -0.000030   0.000001
    25  H   -0.001283  -0.000158  -0.000000
    26  H   -0.000158   0.003968   0.000003
    27  H   -0.000000   0.000003  -0.000086
 Mulliken charges and spin densities:
               1          2
     1  C    0.306456  -0.036651
     2  C   -0.341799   0.011064
     3  C   -0.001892  -0.007519
     4  C   -0.387421   0.000321
     5  C    0.220392  -0.026529
     6  C   -0.379352   0.025305
     7  C   -0.374513   0.019643
     8  C   -0.403520   0.016934
     9  C   -0.360112   0.021291
    10  N    0.037087   0.485844
    11  O   -0.541019   0.497868
    12  H    0.168406  -0.001212
    13  H    0.125724   0.000008
    14  H    0.154765  -0.000088
    15  H    0.154848  -0.000962
    16  H    0.128943  -0.000093
    17  H    0.128931  -0.001474
    18  H    0.150075  -0.001028
    19  H    0.138428  -0.000947
    20  H    0.121852   0.000089
    21  H    0.129815  -0.000202
    22  H    0.155536  -0.000726
    23  H    0.135836  -0.000319
    24  H    0.125093  -0.001460
    25  H    0.146979  -0.000854
    26  H    0.126510   0.001733
    27  H    0.133953  -0.000037
 Sum of Mulliken charges =  -0.00000   1.00000
 Mulliken charges and spin densities with hydrogens summed into heavy atoms:
               1          2
     1  C    0.306456  -0.036651
     2  C   -0.173394   0.009852
     3  C   -0.001892  -0.007519
     4  C    0.027021   0.000205
     5  C    0.220392  -0.026529
     6  C    0.033370   0.022777
     7  C    0.035842   0.017756
     8  C    0.017667   0.015687
     9  C    0.038470   0.020711
    10  N    0.037087   0.485844
    11  O   -0.541019   0.497868
 Electronic spatial extent (au):  <R**2>=           1643.5215
 Charge=             -0.0000 electrons
 Dipole moment (field-independent basis, Debye):
    X=              1.1695    Y=              3.1567    Z=              0.6213  Tot=              3.4233
 Quadrupole moment (field-independent basis, Debye-Ang):
   XX=            -62.1988   YY=            -74.1257   ZZ=            -66.9947
   XY=             -4.4041   XZ=             -0.4766   YZ=             -1.9581
 Traceless Quadrupole moment (field-independent basis, Debye-Ang):
   XX=              5.5743   YY=             -6.3527   ZZ=              0.7784
   XY=             -4.4041   XZ=             -0.4766   YZ=             -1.9581
 Octapole moment (field-independent basis, Debye-Ang**2):
  XXX=             -2.3224  YYY=             11.7394  ZZZ=             -1.2214  XYY=              4.3465
  XXY=              0.8282  XXZ=             -2.3299  XZZ=             -0.7775  YZZ=             -3.4208
  YYZ=              1.9094  XYZ=             -1.2779
 Hexadecapole moment (field-independent basis, Debye-Ang**3):
 XXXX=          -1114.6934 YYYY=           -664.0621 ZZZZ=           -400.0014 XXXY=             -5.0646
 XXXZ=              2.0462 YYYX=            -23.0671 YYYZ=            -11.3448 ZZZX=              2.7229
 ZZZY=             -1.5491 XXYY=           -296.4311 XXZZ=           -259.0527 YYZZ=           -174.5003
 XXYZ=             -6.0525 YYXZ=             -8.2826 ZZXY=             -1.7380
 N-N= 6.946479124684D+02 E-N=-2.511511757298D+03  KE= 4.821195013470D+02
                          Isotropic Fermi Contact Couplings
        Atom                 a.u.       MegaHertz       Gauss      10(-4) cm-1
     1  C(13)             -0.01493     -16.78160      -5.98809      -5.59774
     2  C(13)              0.00112       1.25459       0.44767       0.41849
     3  C(13)             -0.00080      -0.90416      -0.32263      -0.30160
     4  C(13)             -0.00041      -0.45974      -0.16405      -0.15335
     5  C(13)             -0.01681     -18.89271      -6.74139      -6.30193
     6  C(13)              0.01558      17.51712       6.25054       5.84308
     7  C(13)              0.01283      14.42630       5.14766       4.81210
     8  C(13)              0.00851       9.56984       3.41476       3.19215
     9  C(13)              0.01445      16.24584       5.79692       5.41903
    10  N(14)              0.10284      33.22709      11.85625      11.08336
    11  O(17)              0.08843     -53.60545     -19.12776     -17.88085
    12  H(1)              -0.00039      -1.72674      -0.61614      -0.57598
    13  H(1)              -0.00000      -0.02137      -0.00763      -0.00713
    14  H(1)              -0.00004      -0.18422      -0.06573      -0.06145
    15  H(1)              -0.00039      -1.72769      -0.61648      -0.57630
    16  H(1)              -0.00005      -0.22134      -0.07898      -0.07383
    17  H(1)              -0.00029      -1.30729      -0.46647      -0.43606
    18  H(1)              -0.00041      -1.82902      -0.65264      -0.61010
    19  H(1)              -0.00037      -1.66152      -0.59287      -0.55422
    20  H(1)              -0.00010      -0.44347      -0.15824      -0.14793
    21  H(1)              -0.00009      -0.40433      -0.14428      -0.13487
    22  H(1)              -0.00032      -1.42406      -0.50814      -0.47501
    23  H(1)              -0.00023      -1.01397      -0.36181      -0.33822
    24  H(1)               0.00003       0.12635       0.04508       0.04215
    25  H(1)              -0.00043      -1.90437      -0.67953      -0.63523
    26  H(1)               0.00060       2.69650       0.96218       0.89946
    27  H(1)               0.00001       0.05931       0.02116       0.01978
 --------------------------------------------------------
       Center         ----  Spin Dipole Couplings  ----
                      3XX-RR        3YY-RR        3ZZ-RR
 --------------------------------------------------------
     1   Atom        0.004035      0.003511     -0.007547
     2   Atom       -0.012784      0.007919      0.004865
     3   Atom       -0.000793      0.010237     -0.009443
     4   Atom       -0.000234      0.001556     -0.001321
     5   Atom        0.019345     -0.009188     -0.010157
     6   Atom        0.006402     -0.012623      0.006222
     7   Atom        0.012253     -0.014654      0.002402
     8   Atom        0.007515     -0.006715     -0.000800
     9   Atom        0.004804     -0.013940      0.009136
    10   Atom       -0.607794     -0.557532      1.165326
    11   Atom       -1.030242     -1.002599      2.032841
    12   Atom       -0.003847      0.006327     -0.002480
    13   Atom        0.001044      0.000513     -0.001557
    14   Atom       -0.000237      0.001614     -0.001378
    15   Atom        0.004471     -0.001990     -0.002481
    16   Atom        0.004999     -0.002806     -0.002193
    17   Atom        0.000192     -0.006540      0.006348
    18   Atom        0.006500     -0.002845     -0.003655
    19   Atom        0.002128     -0.004715      0.002588
    20   Atom        0.005464     -0.002802     -0.002663
    21   Atom        0.001887      0.000339     -0.002226
    22   Atom        0.005059     -0.001679     -0.003380
    23   Atom       -0.000661      0.000517      0.000143
    24   Atom       -0.004930     -0.003954      0.008885
    25   Atom        0.004400     -0.003114     -0.001286
    26   Atom       -0.000300      0.001891     -0.001591
    27   Atom       -0.000468      0.002151     -0.001683
 --------------------------------------------------------
                        XY            XZ            YZ
 --------------------------------------------------------
     1   Atom       -0.011356     -0.000639     -0.002816
     2   Atom        0.000099      0.001833      0.003585
     3   Atom        0.010212      0.000637      0.001695
     4   Atom        0.002500      0.000204      0.000660
     5   Atom        0.004960     -0.000346     -0.001754
     6   Atom       -0.008281      0.023928     -0.010577
     7   Atom       -0.002059     -0.022024      0.003919
     8   Atom       -0.009705      0.015678     -0.005972
     9   Atom       -0.005010     -0.024845      0.004747
    10   Atom        0.014634     -0.076045     -0.245251
    11   Atom        0.010221     -0.151670     -0.526285
    12   Atom       -0.001165      0.000162      0.000752
    13   Atom        0.002387      0.000251      0.000286
    14   Atom        0.001832     -0.000244     -0.000275
    15   Atom       -0.002626      0.006975     -0.001283
    16   Atom        0.002622      0.003880     -0.000031
    17   Atom        0.001093      0.006667      0.001716
    18   Atom       -0.001209     -0.005704      0.001113
    19   Atom        0.003014     -0.006335     -0.003517
    20   Atom        0.003207     -0.001983      0.000253
    21   Atom       -0.004629      0.000817     -0.000094
    22   Atom       -0.003820      0.005337     -0.001466
    23   Atom       -0.003723      0.002957     -0.004629
    24   Atom       -0.003601     -0.004351      0.006288
    25   Atom       -0.001721     -0.008007      0.002715
    26   Atom       -0.004230     -0.003674      0.002714
    27   Atom        0.002455      0.000725      0.001298
 --------------------------------------------------------


 ---------------------------------------------------------------------------------
              Anisotropic Spin Dipole Couplings in Principal Axis System
 ---------------------------------------------------------------------------------

       Atom             a.u.   MegaHertz   Gauss  10(-4) cm-1        Axes

              Baa    -0.0101    -1.352    -0.482    -0.451  0.4607  0.5324  0.7101
     1 C(13)  Bbb    -0.0052    -0.693    -0.247    -0.231 -0.5345 -0.4723  0.7009
              Bcc     0.0152     2.044     0.729     0.682  0.7086 -0.7025  0.0669
 
              Baa    -0.0130    -1.741    -0.621    -0.581  0.9944  0.0133 -0.1048
     2 C(13)  Bbb     0.0026     0.354     0.126     0.118  0.0942 -0.5601  0.8230
              Bcc     0.0103     1.388     0.495     0.463  0.0478  0.8283  0.5583
 
              Baa    -0.0096    -1.289    -0.460    -0.430  0.0657 -0.1185  0.9908
     3 C(13)  Bbb    -0.0068    -0.919    -0.328    -0.306  0.8575 -0.5010 -0.1168
              Bcc     0.0165     2.207     0.788     0.736  0.5102  0.8573  0.0687
 
              Baa    -0.0021    -0.277    -0.099    -0.092  0.7561 -0.5782  0.3064
     4 C(13)  Bbb    -0.0013    -0.180    -0.064    -0.060 -0.3289  0.0691  0.9418
              Bcc     0.0034     0.457     0.163     0.153  0.5658  0.8129  0.1379
 
              Baa    -0.0118    -1.580    -0.564    -0.527 -0.1010  0.6843  0.7221
     5 C(13)  Bbb    -0.0084    -1.131    -0.403    -0.377 -0.1354  0.7096 -0.6914
              Bcc     0.0202     2.710     0.967     0.904  0.9856  0.1676 -0.0209
 
              Baa    -0.0187    -2.512    -0.896    -0.838 -0.4740  0.5496  0.6879
     6 C(13)  Bbb    -0.0153    -2.058    -0.734    -0.686  0.5655  0.7889 -0.2406
              Bcc     0.0341     4.569     1.631     1.524  0.6749 -0.2749  0.6848
 
              Baa    -0.0169    -2.268    -0.809    -0.756 -0.4095  0.6821 -0.6058
     7 C(13)  Bbb    -0.0134    -1.793    -0.640    -0.598  0.4812  0.7257  0.4918
              Bcc     0.0303     4.061     1.449     1.355  0.7751 -0.0901 -0.6254
 
              Baa    -0.0134    -1.794    -0.640    -0.598  0.6618  0.3912 -0.6395
     8 C(13)  Bbb    -0.0104    -1.399    -0.499    -0.466  0.0029  0.8517  0.5240
              Bcc     0.0238     3.193     1.139     1.065  0.7497 -0.3486  0.5626
 
              Baa    -0.0180    -2.421    -0.864    -0.808  0.7426  0.1520  0.6523
     9 C(13)  Bbb    -0.0149    -1.996    -0.712    -0.666 -0.0159  0.9776 -0.2098
              Bcc     0.0329     4.418     1.576     1.474 -0.6696  0.1454  0.7284
 
              Baa    -0.6119   -23.599    -8.421    -7.872  0.9801 -0.1979  0.0146
    10 N(14)  Bbb    -0.5910   -22.793    -8.133    -7.603  0.1938  0.9704  0.1439
              Bcc     1.2029    46.392    16.554    15.475 -0.0427 -0.1382  0.9895
 
              Baa    -1.0952    79.248    28.278    26.434  0.2528  0.9520  0.1724
    11 O(17)  Bbb    -1.0335    74.786    26.685    24.946  0.9663 -0.2573  0.0036
              Bcc     2.1287  -154.034   -54.963   -51.380 -0.0478 -0.1657  0.9850
 
              Baa    -0.0040    -2.144    -0.765    -0.715  0.9791  0.1221 -0.1628
    12 H(1)   Bbb    -0.0025    -1.333    -0.476    -0.445  0.1712 -0.0612  0.9833
              Bcc     0.0065     3.478     1.241     1.160 -0.1101  0.9906  0.0808
 
              Baa    -0.0017    -0.883    -0.315    -0.294 -0.5188  0.6454 -0.5607
    13 H(1)   Bbb    -0.0016    -0.830    -0.296    -0.277 -0.4240  0.3753  0.8242
              Bcc     0.0032     1.713     0.611     0.571  0.7423  0.6654  0.0790
 
              Baa    -0.0015    -0.776    -0.277    -0.259  0.5259 -0.2409  0.8157
    14 H(1)   Bbb    -0.0013    -0.704    -0.251    -0.235  0.6706 -0.4725 -0.5719
              Bcc     0.0028     1.480     0.528     0.494  0.5232  0.8478 -0.0870
 
              Baa    -0.0068    -3.638    -1.298    -1.213 -0.5358 -0.0677  0.8416
    15 H(1)   Bbb    -0.0027    -1.443    -0.515    -0.481  0.1719  0.9672  0.1872
              Bcc     0.0095     5.081     1.813     1.695  0.8267 -0.2450  0.5065
 
              Baa    -0.0047    -2.515    -0.897    -0.839 -0.4309  0.6034  0.6709
    16 H(1)   Bbb    -0.0026    -1.362    -0.486    -0.454  0.0658  0.7625 -0.6436
              Bcc     0.0073     3.877     1.383     1.293  0.9000  0.2332  0.3683
 
              Baa    -0.0068    -3.616    -1.290    -1.206 -0.0613  0.9932 -0.0987
    17 H(1)   Bbb    -0.0041    -2.173    -0.776    -0.725  0.8425 -0.0015 -0.5387
              Bcc     0.0109     5.790     2.066     1.931  0.5352  0.1162  0.8367
 
              Baa    -0.0063    -3.360    -1.199    -1.121  0.3898 -0.1560  0.9076
    18 H(1)   Bbb    -0.0030    -1.581    -0.564    -0.527  0.1800  0.9794  0.0911
              Bcc     0.0093     4.941     1.763     1.648  0.9031 -0.1279 -0.4099
 
              Baa    -0.0062    -3.300    -1.178    -1.101 -0.1204  0.9484  0.2933
    19 H(1)   Bbb    -0.0040    -2.109    -0.752    -0.703  0.7428 -0.1099  0.6605
              Bcc     0.0101     5.409     1.930     1.804 -0.6586 -0.2973  0.6912
 
              Baa    -0.0044    -2.363    -0.843    -0.788 -0.3561  0.7818 -0.5119
    20 H(1)   Bbb    -0.0025    -1.320    -0.471    -0.440 -0.0105  0.5444  0.8388
              Bcc     0.0069     3.682     1.314     1.228  0.9344  0.3040 -0.1857
 
              Baa    -0.0037    -1.987    -0.709    -0.663  0.6327  0.7139 -0.3002
    21 H(1)   Bbb    -0.0021    -1.142    -0.408    -0.381  0.1320  0.2825  0.9501
              Bcc     0.0059     3.129     1.116     1.044  0.7631 -0.6407  0.0846
 
              Baa    -0.0060    -3.203    -1.143    -1.068 -0.4626 -0.1106  0.8796
    22 H(1)   Bbb    -0.0032    -1.693    -0.604    -0.565  0.2652  0.9295  0.2563
              Bcc     0.0092     4.896     1.747     1.633  0.8460 -0.3518  0.4007
 
              Baa    -0.0044    -2.371    -0.846    -0.791  0.2996  0.7613  0.5750
    23 H(1)   Bbb    -0.0032    -1.716    -0.612    -0.572  0.8156  0.1084 -0.5684
              Bcc     0.0077     4.087     1.459     1.363 -0.4951  0.6393 -0.5884
 
              Baa    -0.0082    -4.352    -1.553    -1.452  0.6832  0.7243 -0.0928
    24 H(1)   Bbb    -0.0049    -2.625    -0.937    -0.876  0.6707 -0.5721  0.4720
              Bcc     0.0131     6.978     2.490     2.327 -0.2888  0.3847  0.8767
 
              Baa    -0.0073    -3.918    -1.398    -1.307  0.5035 -0.3123  0.8056
    25 H(1)   Bbb    -0.0034    -1.790    -0.639    -0.597  0.3502  0.9261  0.1401
              Bcc     0.0107     5.708     2.037     1.904  0.7898 -0.2116 -0.5757
 
              Baa    -0.0048    -2.560    -0.913    -0.854  0.7197  0.1835  0.6696
    26 H(1)   Bbb    -0.0026    -1.367    -0.488    -0.456  0.3706  0.7140 -0.5940
              Bcc     0.0074     3.926     1.401     1.310 -0.5871  0.6756  0.4459
 
              Baa    -0.0021    -1.112    -0.397    -0.371  0.1309 -0.3590  0.9241
    27 H(1)   Bbb    -0.0019    -1.028    -0.367    -0.343  0.8584 -0.4254 -0.2868
              Bcc     0.0040     2.140     0.764     0.714  0.4961  0.8308  0.2524
 

 ---------------------------------------------------------------------------------

 No NMR shielding tensors so no spin-rotation constants.
 Leave Link  601 at Sun Jun 23 21:43:06 2019, MaxMem=  8053063680 cpu:               0.0 elap:               0.4
 (Enter /data2/g16/g16/l9999.exe)
 1\1\GINC-CU10\SP\UPBE1PBE\Gen\C9H16N1O1(2)\ROOT\23-Jun-2019\0\\#p gen 
 6d pbe1pbe\\start preoptimized\\0,2\C,0,82.233,11.38,6.07\C,0,83.161,1
 1.175,4.934\C,0,83.061,9.944,4.462\C,0,83.965,9.488,3.395\C,0,82.214,8
 .992,5.217\C,0,83.048,7.893,5.958\C,0,81.372,8.394,4.123\C,0,81.371,12
 .642,5.758\C,0,83.104,11.527,7.319\N,0,81.642,10.002,6.126\O,0,80.678,
 9.693,6.851\H,0,83.729,11.837,4.611\H,0,83.994,8.535,3.216\H,0,83.927,
 9.961,2.55\H,0,82.469,7.295,6.456\H,0,83.556,7.359,5.327\H,0,83.673,8.
 294,6.582\H,0,80.706,7.809,4.517\H,0,80.934,9.107,3.633\H,0,81.942,7.8
 86,3.524\H,0,81.871,13.454,5.939\H,0,80.569,12.655,6.304\H,0,81.102,12
 .654,4.826\H,0,83.645,10.729,7.427\H,0,82.533,11.642,8.095\H,0,83.679,
 12.301,7.218\H,0,84.69686905,9.84620134,4.08851243\\Version=AM64L-G16R
 evB.01\State=2-A\HF=-481.7123546\S2=0.754948\S2-1=0.\S2A=0.750017\RMSD
 =9.721e-09\Dipole=1.0463037,0.1986403,-0.8244498\Quadrupole=-3.5993662
 ,4.6645289,-1.0651627,-1.0200326,3.2225043,1.8777854\PG=C01 [X(C9H16N1
 O1)]\\@


 IT IS NOT EASY TO DESCRIBE
     THE SEA WITH THE MOUTH

                   -- KOKYU
 Elapsed time:       0 days  0 hours  1 minutes  3.1 seconds.
 File lengths (MBytes):  RWF=     95 Int=      0 D2E=      0 Chk=      8 Scr=      1
 Normal termination of Gaussian 16 at Sun Jun 23 21:43:06 2019.
