 Entering Gaussian System, Link 0=g16
 AtFile(1): /home/malgo/Basis_sets/n07d_pbe0.gbs
            -H 0
             6-31G
             S   1 1.00       0.000000000000
                  0.4000000000D+00  0.10000000D+01
             P   1 1.00       0.000000000000
                  0.7500000000D+00  0.10000000D+01
             ****
             -He 0
             6-31+G**
             ****
             -Li 0
             6-31+G**
             ****
             -Be 0
             6-31+G**
             ****
             -B 0
             6-31G
             S   1 1.00       0.000000000000
                  0.7000000000D+01  0.1000000000D+01
             P   1 1.00       0.000000000000
                  0.3500000000D-01  0.1000000000D+01
             D   1 1.00
                  0.3430000000D+00  0.1000000000D+01
             ****
             -C 0
             6-31G
             S   1 1.00       0.000000000000
                  0.8700000000D+01  0.1000000000D+01
             P   1 1.00       0.000000000000
                  0.5000000000D-01  0.1000000000D+01
             D   1 1.00
                  0.8200000000D+00  0.1000000000D+01
             ****
             -N 0
             6-31G
             S   1 1.00       0.000000000000
                  0.1370000000D+02  0.1000000000D+01
             P   1 1.00       0.000000000000
                  0.5300000000D-01  0.1000000000D+01
             D   1 1.00       0.000000000000
                  0.1015000000D+01  0.1000000000D+01
             ****
             -O 0
             6-31G
             S   1 1.00
                  0.1600000000D+02  0.1000000000D+01
             P   1 1.00       0.000000000000
                  0.6500000000D-01  0.1000000000D+01
             D   1 1.00        0.000000000000
                  0.1190000000D+01  0.1000000000D+01
             D   1 1.00        0.000000000000
                  0.1800000000D+00  0.1000000000D+01
             ****
             -F 0
             6-31G
             S   1 1.00
                  0.1770000000D+02  0.1000000000D+01
             P   1 1.00       0.000000000000
                  0.8300000000D-01  0.1000000000D+01
             D   1 1.00       0.000000000000
                  1.3700000000D+00  0.1000000000D+01
             D   1 1.00       0.000000000000
                  0.2300000000D+00  0.1000000000D+01
             ****
             -Ne 0
             6-31+G**
             ****
             -Na 0
             6-31+G**
             ****
             -Mg 0
             6-31+G**
             ****
             -Al 0
             6-31G
             S   1 1.00      0.000000000000
                  0.3100000000D+01  0.1000000000D+01
             P   1 1.00      0.000000000000
                  0.1500000000D-01  0.1000000000D+01
             D   1 1.00      0.000000000000
                  0.1890000000D+00  0.1000000000D+01
             ****
             -Si 0
             6-31G
             S   1 1.00      0.000000000000
                  0.5000000000D+01  0.1000000000D+01
             P   1 1.00       0.000000000000
                  0.3300000000D-01  0.1000000000D+01
             D   1 1.0        0.000000000000
                  0.2750000000D+00  0.1000000000D+01
             ****
             -P  0
             6-31G
             S   1 1.00       0.000000000000
                  0.6300000000D+01  0.1000000000D+01
             P   1 1.00       0.000000000000
                  0.3500000000D-01  0.1000000000D+01
             D   1 1.00       0.000000000000
                  0.3730000000D+00  0.1000000000D+01
             ****
             -S  0
             6-31G
             S   1  1.00      0.000000000000
                  0.7500000000D+01  0.1000000000D+01
             P   1 1.00       0.000000000000
                  0.4100000000D-01  0.1000000000D+01
             D   1 1.00       0.000000000000
                  0.4790000000D+00  0.1000000000D+01
             ****
            -Cl 0
             6-31G
             S   1 1.00       0.000000000000
                  0.8500000000D+01  0.1000000000D+01
             P   1 1.00       0.000000000000
                  0.4800000000D-01  0.1000000000D+01
             D   1 1.00       0.000000000000
                  0.6000000000D+00  0.1000000000D+01
             D   1 1.00       0.000000000000
                  0.1960000000D+00  0.1000000000D+01
             ****
            -Br 0
             S   3 1.00       0.000000000000
                  0.4721881000D+01  0.1749732514D+00
                  0.2257555000D+01 -0.7074172290D+00
                  0.3896080000D+00  0.1258999543D+01
             S   1 1.00       0.000000000000
                  0.1471340000D+00  0.1000000000D+01
             P   3 1.00       0.000000000000
                  0.1896942000D+01 -0.2464576731D+00
                  0.9108990000D+00  0.3623179892D+00
                  0.3168550000D+00  0.8338469725D+00
             P   1 1.00       0.000000000000
                  0.1095030000D+00  0.1000000000D+01
             P   1 1.00       0.000000000000
                  0.3609700000D-01  0.1000000000D+01
             D   1 1.00
                  0.4750000000D+00  0.1000000000D+01
             D   1 1.00
                  0.1280000000D+00  0.1000000000D+01
             ****
            -I   0
             S   3 1.00       0.000000000000
                  0.2122765000D+01  0.2063429899D+01
                  0.1770481000D+01 -0.2869526473D+01
                  0.3130840000D+00  0.1404747074D+01
             S   1 1.00       0.000000000000
                  0.1320000000D+00  0.1000000000D+01
             P   3 1.00       0.000000000000
                  0.2432887000D+01  0.7732753148D+00
                  0.2137249000D+01 -0.1020833156D+01
                  0.3145460000D+00  0.1095666871D+01
             P   1 1.00       0.000000000000
                  0.1049450000D+00  0.1000000000D+01
             P   1 1.00       0.000000000000
                  0.3264100000D-01  0.1000000000D+01
             D   1 1.00
                  0.300000000          1.00000000
             D   1 1.00
                  0.090000000          1.00000000
             ****
             -Zn 0
             SP   6 1.00       0.000000000000
                  0.6936492000D+02 -0.4440098182D-02 -0.7689261805D-02
                  0.2362082000D+02  0.7505253308D-01 -0.2997981924D-01
                  0.1018471000D+02  0.2533111104D+00  0.7082410821D-01
                  0.4334082000D+01 -0.2881897118D+00  0.4046140897D+00
                  0.1810918000D+01 -0.7267052298D+00  0.4882324876D+00
                  0.7148410000D+00 -0.2133439088D+00  0.1751969956D+00
             SP   3 1.00       0.000000000000
                  0.2823842000D+01  0.4898545031D-01 -0.1586762981D+00
                  0.1039543000D+01  0.2592794075D+00  0.8379326898D-01
                  0.1432640000D+00 -0.1115711463D+01  0.9840546881D+00
             SP   1 1.00       0.000000000000
                  0.4929600000D-01  0.1000000000D+01  0.1000000000D+01
             S    1 1.00       0.000000000000
                  0.1620000000D+00  0.1000000000D+01
             D    3 1.00       0.000000000000
                  0.3370764000D+02  0.9262647815D-01
                  0.9061106000D+01  0.4002979920D+00
                  0.2738383000D+01  0.6896607863D+00
             D    1 1.00
                  0.2440000000D+01  0.1000000000D+01
             D    1 1.00       0.000000000000
                  0.7302940000D+00  0.1000000000D+01
             D    1 1.00       0.000000000000
                  0.1620000000D+00  0.1000000000D+01
            ****
 Initial command:
 /data2/g16/g16/l1.exe "/tmp/Gau-16017.inp" -scrdir="/tmp/"
 Entering Link 1 = /data2/g16/g16/l1.exe PID=     16018.
  
 Copyright (c) 1988-2017, Gaussian, Inc.  All Rights Reserved.
  
 This is part of the Gaussian(R) 16 program.  It is based on
 the Gaussian(R) 09 system (copyright 2009, Gaussian, Inc.),
 the Gaussian(R) 03 system (copyright 2003, Gaussian, Inc.),
 the Gaussian(R) 98 system (copyright 1998, Gaussian, Inc.),
 the Gaussian(R) 94 system (copyright 1995, Gaussian, Inc.),
 the Gaussian 92(TM) system (copyright 1992, Gaussian, Inc.),
 the Gaussian 90(TM) system (copyright 1990, Gaussian, Inc.),
 the Gaussian 88(TM) system (copyright 1988, Gaussian, Inc.),
 the Gaussian 86(TM) system (copyright 1986, Carnegie Mellon
 University), and the Gaussian 82(TM) system (copyright 1983,
 Carnegie Mellon University). Gaussian is a federally registered
 trademark of Gaussian, Inc.
  
 This software contains proprietary and confidential information,
 including trade secrets, belonging to Gaussian, Inc.
  
 This software is provided under written license and may be
 used, copied, transmitted, or stored only in accord with that
 written license.
  
 The following legend is applicable only to US Government
 contracts under FAR:
  
                    RESTRICTED RIGHTS LEGEND
  
 Use, reproduction and disclosure by the US Government is
 subject to restrictions as set forth in subparagraphs (a)
 and (c) of the Commercial Computer Software - Restricted
 Rights clause in FAR 52.227-19.
  
 Gaussian, Inc.
 340 Quinnipiac St., Bldg. 40, Wallingford CT 06492
  
  
 ---------------------------------------------------------------
 Warning -- This program may not be used in any manner that
 competes with the business of Gaussian, Inc. or will provide
 assistance to any competitor of Gaussian, Inc.  The licensee
 of this program is prohibited from giving any competitor of
 Gaussian, Inc. access to this program.  By using this program,
 the user acknowledges that Gaussian, Inc. is engaged in the
 business of creating and licensing software in the field of
 computational chemistry and represents and warrants to the
 licensee that it is not a competitor of Gaussian, Inc. and that
 it will not use this program in any manner prohibited above.
 ---------------------------------------------------------------
  

 Cite this work as:
 Gaussian 16, Revision B.01,
 M. J. Frisch, G. W. Trucks, H. B. Schlegel, G. E. Scuseria, 
 M. A. Robb, J. R. Cheeseman, G. Scalmani, V. Barone, 
 G. A. Petersson, H. Nakatsuji, X. Li, M. Caricato, A. V. Marenich, 
 J. Bloino, B. G. Janesko, R. Gomperts, B. Mennucci, H. P. Hratchian, 
 J. V. Ortiz, A. F. Izmaylov, J. L. Sonnenberg, D. Williams-Young, 
 F. Ding, F. Lipparini, F. Egidi, J. Goings, B. Peng, A. Petrone, 
 T. Henderson, D. Ranasinghe, V. G. Zakrzewski, J. Gao, N. Rega, 
 G. Zheng, W. Liang, M. Hada, M. Ehara, K. Toyota, R. Fukuda, 
 J. Hasegawa, M. Ishida, T. Nakajima, Y. Honda, O. Kitao, H. Nakai, 
 T. Vreven, K. Throssell, J. A. Montgomery, Jr., J. E. Peralta, 
 F. Ogliaro, M. J. Bearpark, J. J. Heyd, E. N. Brothers, K. N. Kudin, 
 V. N. Staroverov, T. A. Keith, R. Kobayashi, J. Normand, 
 K. Raghavachari, A. P. Rendell, J. C. Burant, S. S. Iyengar, 
 J. Tomasi, M. Cossi, J. M. Millam, M. Klene, C. Adamo, R. Cammi, 
 J. W. Ochterski, R. L. Martin, K. Morokuma, O. Farkas, 
 J. B. Foresman, and D. J. Fox, Gaussian, Inc., Wallingford CT, 2016.
 
 ******************************************
 Gaussian 16:  AM64L-G16RevB.01 20-Dec-2017
                23-Jun-2019 
 ******************************************
 %chk=6N87_MTN_ready_set.chk
 %mem=60GB
 %nprocshared=12
 Will use up to   12 processors via shared memory.
 -----------------
 #p gen 6d pbe1pbe
 -----------------
 1/38=1,172=1/1;
 2/12=2,17=6,18=5,40=1/2;
 3/5=7,8=2,11=2,25=1,30=1,74=-13/1,2,3;
 4//1;
 5/5=2,38=5/2;
 6/7=2,8=2,9=2,10=2,28=1/1;
 99/5=1,9=1/99;
 Leave Link    1 at Sun Jun 23 21:41:00 2019, MaxMem=  8053063680 cpu:               0.0 elap:               0.1
 (Enter /data2/g16/g16/l101.exe)
 ------------------
 start preoptimized
 ------------------
 Symbolic Z-matrix:
 Charge =  0 Multiplicity = 2
 C                     82.567    11.28     5.876 
 C                     83.585    11.12     4.889 
 C                     83.533    9.835     4.362 
 C                     84.452    9.352     3.255 
 C                     82.51     9.094     5.03 
 C                     83.036    7.993     5.943 
 C                     81.626    8.34      4.053 
 C                     81.7      12.519    5.77 
 C                     83.095    11.441    7.293 
 N                     81.702    10.105    5.726 
 O                     81.222    9.777     6.646 
 H                     84.404    11.548    4.993 
 H                     84.531    8.418     3.302 
 H                     84.089    9.591     2.423 
 H                     82.315    7.543     6.343 
 H                     83.543    7.385     5.439 
 H                     83.577    8.372     6.611 
 H                     81.015    7.808     4.527 
 H                     81.158    8.953     3.518 
 H                     82.159    7.792     3.507 
 H                     82.209    13.278    5.985 
 H                     80.975    12.448    6.363 
 H                     81.377    12.599    4.892 
 H                     83.565    10.667    7.54 
 H                     82.378    11.573    7.885 
 H                     83.672    12.181    7.33 
 H                     85.42032   9.79519   3.35907 
 
 ITRead=  0  0  0  0  0  0  0  0  0  0  0  0  0  0  0  0  0  0  0  0
 ITRead=  0  0  0  0  0  0  0
 MicOpt= -1 -1 -1 -1 -1 -1 -1 -1 -1 -1 -1 -1 -1 -1 -1 -1 -1 -1 -1 -1
 MicOpt= -1 -1 -1 -1 -1 -1 -1
 NAtoms=     27 NQM=       27 NQMF=       0 NMMI=      0 NMMIF=      0
                NMic=       0 NMicF=      0.
                    Isotopes and Nuclear Properties:
 (Nuclear quadrupole moments (NQMom) in fm**2, nuclear magnetic moments (NMagM)
  in nuclear magnetons)

  Atom         1           2           3           4           5           6           7           8           9          10
 IAtWgt=          12          12          12          12          12          12          12          12          12          14
 AtmWgt=  12.0000000  12.0000000  12.0000000  12.0000000  12.0000000  12.0000000  12.0000000  12.0000000  12.0000000  14.0030740
 NucSpn=           0           0           0           0           0           0           0           0           0           2
 AtZEff=   0.0000000   0.0000000   0.0000000   0.0000000   0.0000000   0.0000000   0.0000000   0.0000000   0.0000000   0.0000000
 NQMom=    0.0000000   0.0000000   0.0000000   0.0000000   0.0000000   0.0000000   0.0000000   0.0000000   0.0000000   2.0440000
 NMagM=    0.0000000   0.0000000   0.0000000   0.0000000   0.0000000   0.0000000   0.0000000   0.0000000   0.0000000   0.4037610
 AtZNuc=   6.0000000   6.0000000   6.0000000   6.0000000   6.0000000   6.0000000   6.0000000   6.0000000   6.0000000   7.0000000

  Atom        11          12          13          14          15          16          17          18          19          20
 IAtWgt=          16           1           1           1           1           1           1           1           1           1
 AtmWgt=  15.9949146   1.0078250   1.0078250   1.0078250   1.0078250   1.0078250   1.0078250   1.0078250   1.0078250   1.0078250
 NucSpn=           0           1           1           1           1           1           1           1           1           1
 AtZEff=   0.0000000   0.0000000   0.0000000   0.0000000   0.0000000   0.0000000   0.0000000   0.0000000   0.0000000   0.0000000
 NQMom=    0.0000000   0.0000000   0.0000000   0.0000000   0.0000000   0.0000000   0.0000000   0.0000000   0.0000000   0.0000000
 NMagM=    0.0000000   2.7928460   2.7928460   2.7928460   2.7928460   2.7928460   2.7928460   2.7928460   2.7928460   2.7928460
 AtZNuc=   8.0000000   1.0000000   1.0000000   1.0000000   1.0000000   1.0000000   1.0000000   1.0000000   1.0000000   1.0000000

  Atom        21          22          23          24          25          26          27
 IAtWgt=           1           1           1           1           1           1           1
 AtmWgt=   1.0078250   1.0078250   1.0078250   1.0078250   1.0078250   1.0078250   1.0078250
 NucSpn=           1           1           1           1           1           1           1
 AtZEff=   0.0000000   0.0000000   0.0000000   0.0000000   0.0000000   0.0000000   0.0000000
 NQMom=    0.0000000   0.0000000   0.0000000   0.0000000   0.0000000   0.0000000   0.0000000
 NMagM=    2.7928460   2.7928460   2.7928460   2.7928460   2.7928460   2.7928460   2.7928460
 AtZNuc=   1.0000000   1.0000000   1.0000000   1.0000000   1.0000000   1.0000000   1.0000000
 Leave Link  101 at Sun Jun 23 21:41:00 2019, MaxMem=  8053063680 cpu:               0.0 elap:               0.1
 (Enter /data2/g16/g16/l202.exe)
                          Input orientation:                          
 ---------------------------------------------------------------------
 Center     Atomic      Atomic             Coordinates (Angstroms)
 Number     Number       Type             X           Y           Z
 ---------------------------------------------------------------------
      1          6           0       82.567000   11.280000    5.876000
      2          6           0       83.585000   11.120000    4.889000
      3          6           0       83.533000    9.835000    4.362000
      4          6           0       84.452000    9.352000    3.255000
      5          6           0       82.510000    9.094000    5.030000
      6          6           0       83.036000    7.993000    5.943000
      7          6           0       81.626000    8.340000    4.053000
      8          6           0       81.700000   12.519000    5.770000
      9          6           0       83.095000   11.441000    7.293000
     10          7           0       81.702000   10.105000    5.726000
     11          8           0       81.222000    9.777000    6.646000
     12          1           0       84.404000   11.548000    4.993000
     13          1           0       84.531000    8.418000    3.302000
     14          1           0       84.089000    9.591000    2.423000
     15          1           0       82.315000    7.543000    6.343000
     16          1           0       83.543000    7.385000    5.439000
     17          1           0       83.577000    8.372000    6.611000
     18          1           0       81.015000    7.808000    4.527000
     19          1           0       81.158000    8.953000    3.518000
     20          1           0       82.159000    7.792000    3.507000
     21          1           0       82.209000   13.278000    5.985000
     22          1           0       80.975000   12.448000    6.363000
     23          1           0       81.377000   12.599000    4.892000
     24          1           0       83.565000   10.667000    7.540000
     25          1           0       82.378000   11.573000    7.885000
     26          1           0       83.672000   12.181000    7.330000
     27          1           0       85.420324    9.795192    3.359069
 ---------------------------------------------------------------------
                    Distance matrix (angstroms):
                    1          2          3          4          5
     1  C    0.000000
     2  C    1.426917   0.000000
     3  C    2.305076   1.389841   0.000000
     4  C    3.760326   2.558802   1.517662   0.000000
     5  C    2.344688   2.297865   1.428928   2.643587   0.000000
     6  C    3.320967   3.345212   2.477808   3.328255   1.523957
     7  C    3.585026   3.502139   2.442776   3.105998   1.518058
     8  C    1.515931   2.507307   3.542063   4.891689   3.596432
     9  C    1.520722   2.474340   3.370733   4.744556   3.312371
    10  N    1.466748   2.297060   2.299121   3.772976   1.469490
    11  O    2.158920   3.236428   3.249729   4.702383   2.176440
    12  H    2.055744   0.929925   2.022664   2.800958   3.100116
    13  H    4.321321   3.273269   2.031623   0.938513   2.743611
    14  H    4.134297   2.944998   2.031845   0.938677   3.088155
    15  H    3.774488   4.064720   3.265141   4.168332   2.041469
    16  H    4.039130   3.775512   2.676290   3.076561   2.038394
    17  H    3.164931   3.242970   2.683339   3.603992   2.039445
    18  H    4.035256   4.207765   3.236708   3.976794   2.035149
    19  H    3.600052   3.530702   2.670372   3.328484   2.033207
    20  H    4.236127   3.875433   2.606290   2.784772   2.034191
    21  H    2.032744   2.784162   4.030056   5.281801   4.302149
    22  H    2.033681   3.278469   4.168349   5.597715   3.922044
    23  H    2.030792   2.657577   3.545269   4.762185   3.686158
    24  H    2.034863   2.689500   3.285260   4.569160   3.144432
    25  H    2.039032   3.261606   4.094655   5.538160   3.783370
    26  H    2.036404   2.663038   3.785771   5.021680   4.021171
    27  H    4.084244   2.732072   2.137626   1.070000   3.428361
                    6          7          8          9         10
     6  C    0.000000
     7  C    2.383403   0.000000
     8  C    4.722235   4.518585   0.000000
     9  C    3.703334   4.719297   2.329729   0.000000
    10  N    2.507427   2.433091   2.414402   2.486128   0.000000
    11  O    2.639595   2.991962   2.917949   2.587592   1.088294
    12  H    3.925806   4.346510   2.976270   2.648571   3.149657
    13  H    3.064397   3.001518   5.560916   5.208522   4.089619
    14  H    4.006596   3.207533   5.048060   5.303531   4.107527
    15  H    0.939330   2.520720   5.046497   4.087212   2.705606
    16  H    0.938472   2.551061   5.464812   4.482093   3.296976
    17  H    0.939439   3.217264   4.629041   3.180599   2.702247
    18  H    2.474616   0.938627   4.920142   5.017554   2.680630
    19  H    3.213893   0.938626   4.252249   4.918611   2.549177
    20  H    2.596849   0.939420   5.260834   5.340889   3.237712
    21  H    5.349478   5.334450   0.938822   2.422897   3.223672
    22  H    4.926575   4.757685   0.939316   2.524549   2.534551
    23  H    5.007207   4.347988   0.938942   3.171323   2.649758
    24  H    3.159197   4.618855   3.168758   0.938608   2.660302
    25  H    4.125618   5.069716   2.414089   0.939136   2.696902
    26  H    4.457310   5.447763   2.537051   0.939094   3.280776
    27  H    3.950898   4.122622   5.203126   4.857121   4.418628
                   11         12         13         14         15
    11  O    0.000000
    12  H    3.999247   0.000000
    13  H    4.896805   3.559847   0.000000
    14  H    5.107643   3.245608   1.530991   0.000000
    15  H    2.505437   4.714493   3.863154   4.765268   0.000000
    16  H    3.544793   4.274436   2.570992   3.776349   1.533024
    17  H    2.742494   3.659075   3.444084   4.391748   1.533528
    18  H    2.899995   5.068538   3.772927   4.129816   2.249018
    19  H    3.235345   4.409781   3.421989   3.193248   3.362644
    20  H    3.830341   4.621229   2.461765   2.852430   2.851181
    21  H    3.697038   2.965635   6.017456   5.460422   5.747141
    22  H    2.697284   3.800650   6.185124   5.777806   5.084784
    23  H    3.326293   3.205859   5.473260   4.743308   5.343069
    24  H    2.661012   2.822639   4.894058   5.255097   3.571370
    25  H    2.469225   3.531142   5.966014   6.057168   4.315395
    26  H    3.499939   2.529443   5.578784   5.564228   4.932207
    27  H    5.331994   2.602879   1.640369   1.640226   4.859963
                   16         17         18         19         20
    16  H    0.000000
    17  H    1.532615   0.000000
    18  H    2.720562   3.350373   0.000000
    19  H    3.440507   3.969354   1.532826   0.000000
    20  H    2.411168   3.461494   1.532773   1.532985   0.000000
    21  H    6.066722   5.131485   5.785525   5.088842   6.019899
    22  H    5.751727   4.842074   4.990200   4.510270   5.589001
    23  H    5.672439   5.065816   4.818501   3.902455   5.063299
    24  H    3.896949   2.475926   4.873864   4.990784   5.148548
    25  H    4.987934   3.647887   5.225816   5.236744   5.788852
    26  H    5.156950   3.877430   5.834345   5.592095   6.013969
    27  H    3.695873   3.999796   4.971908   4.347637   3.830260
                   21         22         23         24         25
    21  H    0.000000
    22  H    1.534451   0.000000
    23  H    1.532290   1.532399   0.000000
    24  H    3.327774   3.356395   3.941050   0.000000
    25  H    2.558434   2.247336   3.318543   1.532589   0.000000
    26  H    2.269979   2.877531   3.374254   1.532235   1.533664
    27  H    5.416462   5.985139   5.153609   4.656442   5.735885
                   26         27
    26  H    0.000000
    27  H    4.951465   0.000000
 Stoichiometry    C9H16NO(2)
 Framework group  C1[X(C9H16NO)]
 Deg. of freedom    75
 Full point group                 C1      NOp   1
 Largest Abelian subgroup         C1      NOp   1
 Largest concise Abelian subgroup C1      NOp   1
                         Standard orientation:                         
 ---------------------------------------------------------------------
 Center     Atomic      Atomic             Coordinates (Angstroms)
 Number     Number       Type             X           Y           Z
 ---------------------------------------------------------------------
      1          6           0       -1.265943    0.399263   -0.052102
      2          6           0       -0.321111    1.462676    0.059876
      3          6           0        0.970717    0.951048    0.027058
      4          6           0        2.212202    1.822464    0.078508
      5          6           0        0.909913   -0.474359   -0.052637
      6          6           0        1.361348   -1.187285    1.216374
      7          6           0        1.849579   -1.023830   -1.110753
      8          6           0       -2.376475    0.575019   -1.068897
      9          6           0       -2.087206    0.162548    1.205708
     10          7           0       -0.475700   -0.774121   -0.439446
     11          8           0       -0.872288   -1.723224   -0.084049
     12          1           0       -0.515624    2.202995    0.587941
     13          1           0        2.929341    1.321960    0.419116
     14          1           0        2.422561    2.115571   -0.788067
     15          1           0        1.303561   -2.116824    1.094073
     16          1           0        2.249428   -0.951875    1.407749
     17          1           0        0.809543   -0.931534    1.932370
     18          1           0        1.839077   -1.962038   -1.084767
     19          1           0        1.571330   -0.731077   -1.958038
     20          1           0        2.721788   -0.716778   -0.944980
     21          1           0       -2.967677    1.242986   -0.776173
     22          1           0       -2.841806   -0.234589   -1.170467
     23          1           0       -2.006197    0.826608   -1.894252
     24          1           0       -1.515944   -0.081956    1.909172
     25          1           0       -2.707667   -0.525892    1.053868
     26          1           0       -2.543661    0.950678    1.434612
     27          1           0        2.042015    2.671133    0.707553
 ---------------------------------------------------------------------
 Rotational constants (GHZ):           1.6997888           1.0750697           0.8714403
 Leave Link  202 at Sun Jun 23 21:41:01 2019, MaxMem=  8053063680 cpu:               0.0 elap:               0.1
 (Enter /data2/g16/g16/l301.exe)
 General basis read from cards:  (6D, 7F)
 Centers:      12     13     14     15     16     17     18     19     20     21
 Centers:      22     23     24     25     26     27
 6-31G
 S 1 1.00 0.000000000000
     Exponent=  4.0000000000D-01 Coefficients=  1.0000000000D+00
 P 1 1.00 0.000000000000
     Exponent=  7.5000000000D-01 Coefficients=  1.0000000000D+00
 ****
 Centers:       1      2      3      4      5      6      7      8      9
 6-31G
 S 1 1.00 0.000000000000
     Exponent=  8.7000000000D+00 Coefficients=  1.0000000000D+00
 P 1 1.00 0.000000000000
     Exponent=  5.0000000000D-02 Coefficients=  1.0000000000D+00
 D 1 1.00
     Exponent=  8.2000000000D-01 Coefficients=  1.0000000000D+00
 ****
 Centers:      10
 6-31G
 S 1 1.00 0.000000000000
     Exponent=  1.3700000000D+01 Coefficients=  1.0000000000D+00
 P 1 1.00 0.000000000000
     Exponent=  5.3000000000D-02 Coefficients=  1.0000000000D+00
 D 1 1.00 0.000000000000
     Exponent=  1.0150000000D+00 Coefficients=  1.0000000000D+00
 ****
 Centers:      11
 6-31G
 S 1 1.00
     Exponent=  1.6000000000D+01 Coefficients=  1.0000000000D+00
 P 1 1.00 0.000000000000
     Exponent=  6.5000000000D-02 Coefficients=  1.0000000000D+00
 D 1 1.00 0.000000000000
     Exponent=  1.1900000000D+00 Coefficients=  1.0000000000D+00
 D 1 1.00 0.000000000000
     Exponent=  1.8000000000D-01 Coefficients=  1.0000000000D+00
 ****
 Ernie: Thresh=  0.10000D-02 Tol=  0.10000D-05 Strict=F.
 There are   311 symmetry adapted cartesian basis functions of A   symmetry.
 There are   311 symmetry adapted basis functions of A   symmetry.
   311 basis functions,   486 primitive gaussians,   311 cartesian basis functions
    43 alpha electrons       42 beta electrons
       nuclear repulsion energy       712.0910468364 Hartrees.
 IExCor= 1009 DFT=T Ex+Corr=PBE1PBE ExCW=0 ScaHFX=  0.250000
 ScaDFX=  0.750000  0.750000  1.000000  1.000000 ScalE2=  1.000000  1.000000
 IRadAn=      5 IRanWt=     -1 IRanGd=            0 ICorTp=0 IEmpDi=  4
 NAtoms=   27 NActive=   27 NUniq=   27 SFac= 1.00D+00 NAtFMM=   60 NAOKFM=F Big=F
 Integral buffers will be    131072 words long.
 Raffenetti 2 integral format.
 Two-electron integral symmetry is turned on.
 Leave Link  301 at Sun Jun 23 21:41:01 2019, MaxMem=  8053063680 cpu:               0.0 elap:               0.2
 (Enter /data2/g16/g16/l302.exe)
 NPDir=0 NMtPBC=     1 NCelOv=     1 NCel=       1 NClECP=     1 NCelD=      1
         NCelK=      1 NCelE2=     1 NClLst=     1 CellRange=     0.0.
 One-electron integrals computed using PRISM.
 One-electron integral symmetry used in STVInt
 NBasis=   311 RedAO= T EigKep=  7.20D-05  NBF=   311
 NBsUse=   311 1.00D-06 EigRej= -1.00D+00 NBFU=   311
 Precomputing XC quadrature grid using
 IXCGrd= 4 IRadAn=           5 IRanWt=          -1 IRanGd=           0 AccXCQ= 0.00D+00.
 Generated NRdTot=       0 NPtTot=           0 NUsed=           0 NTot=          32
 NSgBfM=   309   309   309   309   309 MxSgAt=    27 MxSgA2=    27.
 Leave Link  302 at Sun Jun 23 21:41:01 2019, MaxMem=  8053063680 cpu:               0.0 elap:               0.4
 (Enter /data2/g16/g16/l303.exe)
 DipDrv:  MaxL=1.
 Leave Link  303 at Sun Jun 23 21:41:01 2019, MaxMem=  8053063680 cpu:               0.0 elap:               0.1
 (Enter /data2/g16/g16/l401.exe)
 ExpMin= 5.00D-02 ExpMax= 5.48D+03 ExpMxC= 8.25D+02 IAcc=3 IRadAn=         5 AccDes= 0.00D+00
 Harris functional with IExCor= 1009 and IRadAn=       5 diagonalized for initial guess.
 HarFok:  IExCor= 1009 AccDes= 0.00D+00 IRadAn=         5 IDoV= 1 UseB2=F ITyADJ=14
 ICtDFT=  3500011 ScaDFX=  1.000000  1.000000  1.000000  1.000000
 FoFCou: FMM=F IPFlag=           0 FMFlag=      100000 FMFlg1=           0
         NFxFlg=           0 DoJE=T BraDBF=F KetDBF=T FulRan=T
         wScrn=  0.000000 ICntrl=       500 IOpCl=  0 I1Cent=   200000004 NGrid=           0
         NMat0=    1 NMatS0=      1 NMatT0=    0 NMatD0=    1 NMtDS0=    0 NMtDT0=    0
 Petite list used in FoFCou.
 Harris En= -481.987503236204    
 JPrj=0 DoOrth=F DoCkMO=F.
 Initial guess <Sx>= 0.0000 <Sy>= 0.0000 <Sz>= 0.5000 <S**2>= 0.7500 S= 0.5000
 Leave Link  401 at Sun Jun 23 21:41:03 2019, MaxMem=  8053063680 cpu:               0.0 elap:               1.1
 (Enter /data2/g16/g16/l502.exe)
 Integral symmetry usage will be decided dynamically.
 UHF open shell SCF:
 Using DIIS extrapolation, IDIIS=  1040.
 NGot=  8053063680 LenX=  8052863195 LenY=  8052766033
 Requested convergence on RMS density matrix=1.00D-08 within 128 cycles.
 Requested convergence on MAX density matrix=1.00D-06.
 Requested convergence on             energy=1.00D-06.
 No special actions if energy rises.
 Fock matrices will be formed incrementally for  20 cycles.
 Integral accuracy reduced to 1.0D-05 until final iterations.

 Cycle   1  Pass 0  IDiag  1:
 FoFJK:  IHMeth= 1 ICntrl=       0 DoSepK=F KAlg= 0 I1Cent=           0 FoldK=F
 IRaf= 950000000 NMat=       1 IRICut=       1 DoRegI=T DoRafI=F ISym2E= 0 IDoP0=0 IntGTp=1.
 FoFCou: FMM=F IPFlag=           0 FMFlag=      100000 FMFlg1=           0
         NFxFlg=           0 DoJE=F BraDBF=F KetDBF=F FulRan=T
         wScrn=  0.000000 ICntrl=         0 IOpCl=  1 I1Cent=           0 NGrid=           0
         NMat0=    1 NMatS0=      1 NMatT0=    0 NMatD0=    1 NMtDS0=    0 NMtDT0=    0
 Symmetry not used in FoFCou.
 E= -480.994412785243    
 DIIS: error= 4.37D-02 at cycle   1 NSaved=   1.
 NSaved= 1 IEnMin= 1 EnMin= -480.994412785243     IErMin= 1 ErrMin= 4.37D-02
 ErrMax= 4.37D-02  0.00D+00 EMaxC= 1.00D-01 BMatC= 2.48D+00 BMatP= 2.48D+00
 IDIUse=3 WtCom= 5.63D-01 WtEn= 4.37D-01
 Coeff-Com:  0.100D+01
 Coeff-En:   0.100D+01
 Coeff:      0.100D+01
 Gap=     0.239 Goal=   None    Shift=    0.000
 Gap=     0.165 Goal=   None    Shift=    0.000
 GapD=    0.165 DampG=1.000 DampE=0.500 DampFc=0.5000 IDamp=-1.
 Damping current iteration by 5.00D-01
 RMSDP=5.26D-03 MaxDP=1.71D-01              OVMax= 2.54D-01

 Cycle   2  Pass 0  IDiag  1:
 RMSU=  2.51D-03    CP:  9.51D-01
 E= -481.271314333433     Delta-E=       -0.276901548191 Rises=F Damp=T
 DIIS: error= 6.63D-03 at cycle   2 NSaved=   2.
 NSaved= 2 IEnMin= 2 EnMin= -481.271314333433     IErMin= 2 ErrMin= 6.63D-03
 ErrMax= 6.63D-03  0.00D+00 EMaxC= 1.00D-01 BMatC= 1.09D-01 BMatP= 2.48D+00
 IDIUse=3 WtCom= 9.34D-01 WtEn= 6.63D-02
 Coeff-Com: -0.131D-01 0.101D+01
 Coeff-En:   0.000D+00 0.100D+01
 Coeff:     -0.122D-01 0.101D+01
 Gap=     0.229 Goal=   None    Shift=    0.000
 Gap=     0.203 Goal=   None    Shift=    0.000
 RMSDP=1.40D-03 MaxDP=4.40D-02 DE=-2.77D-01 OVMax= 1.32D-01

 Cycle   3  Pass 0  IDiag  1:
 RMSU=  1.32D-03    CP:  9.28D-01  1.11D+00
 E= -481.541777431346     Delta-E=       -0.270463097913 Rises=F Damp=F
 DIIS: error= 4.87D-03 at cycle   3 NSaved=   3.
 NSaved= 3 IEnMin= 3 EnMin= -481.541777431346     IErMin= 3 ErrMin= 4.87D-03
 ErrMax= 4.87D-03  0.00D+00 EMaxC= 1.00D-01 BMatC= 7.56D-02 BMatP= 1.09D-01
 IDIUse=3 WtCom= 9.51D-01 WtEn= 4.87D-02
 Coeff-Com: -0.402D-01 0.465D+00 0.575D+00
 Coeff-En:   0.000D+00 0.000D+00 0.100D+01
 Coeff:     -0.382D-01 0.442D+00 0.596D+00
 Gap=     0.175 Goal=   None    Shift=    0.000
 Gap=     0.202 Goal=   None    Shift=    0.000
 RMSDP=7.47D-04 MaxDP=3.33D-02 DE=-2.70D-01 OVMax= 5.39D-02

 Cycle   4  Pass 0  IDiag  1:
 RMSU=  5.97D-04    CP:  9.34D-01  1.13D+00  6.70D-01
 E= -481.552857368511     Delta-E=       -0.011079937166 Rises=F Damp=F
 DIIS: error= 2.41D-03 at cycle   4 NSaved=   4.
 NSaved= 4 IEnMin= 4 EnMin= -481.552857368511     IErMin= 4 ErrMin= 2.41D-03
 ErrMax= 2.41D-03  0.00D+00 EMaxC= 1.00D-01 BMatC= 2.12D-02 BMatP= 7.56D-02
 IDIUse=3 WtCom= 9.76D-01 WtEn= 2.41D-02
 Coeff-Com: -0.150D-01 0.746D-01 0.358D+00 0.582D+00
 Coeff-En:   0.000D+00 0.000D+00 0.250D+00 0.750D+00
 Coeff:     -0.146D-01 0.728D-01 0.356D+00 0.586D+00
 Gap=     0.179 Goal=   None    Shift=    0.000
 Gap=     0.202 Goal=   None    Shift=    0.000
 RMSDP=3.20D-04 MaxDP=1.64D-02 DE=-1.11D-02 OVMax= 3.23D-02

 Cycle   5  Pass 0  IDiag  1:
 RMSU=  1.91D-04    CP:  9.31D-01  1.12D+00  7.47D-01  6.11D-01
 E= -481.557059952931     Delta-E=       -0.004202584420 Rises=F Damp=F
 DIIS: error= 8.08D-04 at cycle   5 NSaved=   5.
 NSaved= 5 IEnMin= 5 EnMin= -481.557059952931     IErMin= 5 ErrMin= 8.08D-04
 ErrMax= 8.08D-04  0.00D+00 EMaxC= 1.00D-01 BMatC= 1.87D-03 BMatP= 2.12D-02
 IDIUse=3 WtCom= 9.92D-01 WtEn= 8.08D-03
 Coeff-Com: -0.567D-02 0.108D-01 0.171D+00 0.341D+00 0.482D+00
 Coeff-En:   0.000D+00 0.000D+00 0.000D+00 0.325D-02 0.997D+00
 Coeff:     -0.563D-02 0.107D-01 0.170D+00 0.339D+00 0.487D+00
 Gap=     0.177 Goal=   None    Shift=    0.000
 Gap=     0.203 Goal=   None    Shift=    0.000
 RMSDP=9.60D-05 MaxDP=5.51D-03 DE=-4.20D-03 OVMax= 1.14D-02

 Cycle   6  Pass 0  IDiag  1:
 RMSU=  6.57D-05    CP:  9.31D-01  1.12D+00  7.52D-01  6.35D-01  6.42D-01
 E= -481.557476271569     Delta-E=       -0.000416318638 Rises=F Damp=F
 DIIS: error= 1.72D-04 at cycle   6 NSaved=   6.
 NSaved= 6 IEnMin= 6 EnMin= -481.557476271569     IErMin= 6 ErrMin= 1.72D-04
 ErrMax= 1.72D-04  0.00D+00 EMaxC= 1.00D-01 BMatC= 1.47D-04 BMatP= 1.87D-03
 IDIUse=3 WtCom= 9.98D-01 WtEn= 1.72D-03
 Coeff-Com: -0.103D-02-0.273D-02 0.474D-01 0.103D+00 0.256D+00 0.597D+00
 Coeff-En:   0.000D+00 0.000D+00 0.000D+00 0.000D+00 0.212D-01 0.979D+00
 Coeff:     -0.103D-02-0.273D-02 0.473D-01 0.103D+00 0.255D+00 0.598D+00
 Gap=     0.177 Goal=   None    Shift=    0.000
 Gap=     0.204 Goal=   None    Shift=    0.000
 RMSDP=2.94D-05 MaxDP=1.54D-03 DE=-4.16D-04 OVMax= 3.12D-03

 Cycle   7  Pass 0  IDiag  1:
 RMSU=  1.75D-05    CP:  9.31D-01  1.12D+00  7.59D-01  6.40D-01  6.95D-01
                    CP:  7.11D-01
 E= -481.557510081495     Delta-E=       -0.000033809926 Rises=F Damp=F
 DIIS: error= 8.60D-05 at cycle   7 NSaved=   7.
 NSaved= 7 IEnMin= 7 EnMin= -481.557510081495     IErMin= 7 ErrMin= 8.60D-05
 ErrMax= 8.60D-05  0.00D+00 EMaxC= 1.00D-01 BMatC= 2.12D-05 BMatP= 1.47D-04
 IDIUse=1 WtCom= 1.00D+00 WtEn= 0.00D+00
 Coeff-Com:  0.198D-03-0.282D-02 0.603D-02 0.139D-01 0.776D-01 0.328D+00
 Coeff-Com:  0.577D+00
 Coeff:      0.198D-03-0.282D-02 0.603D-02 0.139D-01 0.776D-01 0.328D+00
 Coeff:      0.577D+00
 Gap=     0.178 Goal=   None    Shift=    0.000
 Gap=     0.204 Goal=   None    Shift=    0.000
 RMSDP=1.19D-05 MaxDP=6.89D-04 DE=-3.38D-05 OVMax= 9.03D-04

 Cycle   8  Pass 0  IDiag  1:
 RMSU=  9.07D-06    CP:  9.31D-01  1.12D+00  7.59D-01  6.45D-01  7.16D-01
                    CP:  7.85D-01  8.58D-01
 E= -481.557514553993     Delta-E=       -0.000004472497 Rises=F Damp=F
 DIIS: error= 2.52D-05 at cycle   8 NSaved=   8.
 NSaved= 8 IEnMin= 8 EnMin= -481.557514553993     IErMin= 8 ErrMin= 2.52D-05
 ErrMax= 2.52D-05  0.00D+00 EMaxC= 1.00D-01 BMatC= 1.65D-06 BMatP= 2.12D-05
 IDIUse=1 WtCom= 1.00D+00 WtEn= 0.00D+00
 Coeff-Com:  0.334D-03-0.436D-03-0.811D-02-0.204D-01-0.328D-01-0.851D-02
 Coeff-Com:  0.178D+00 0.892D+00
 Coeff:      0.334D-03-0.436D-03-0.811D-02-0.204D-01-0.328D-01-0.851D-02
 Coeff:      0.178D+00 0.892D+00
 Gap=     0.178 Goal=   None    Shift=    0.000
 Gap=     0.204 Goal=   None    Shift=    0.000
 RMSDP=3.97D-06 MaxDP=3.20D-04 DE=-4.47D-06 OVMax= 3.03D-04

 Initial convergence to 1.0D-05 achieved.  Increase integral accuracy.
 Cycle   9  Pass 1  IDiag  1:
 E= -481.557473217703     Delta-E=        0.000041336290 Rises=F Damp=F
 DIIS: error= 1.91D-05 at cycle   1 NSaved=   1.
 NSaved= 1 IEnMin= 1 EnMin= -481.557473217703     IErMin= 1 ErrMin= 1.91D-05
 ErrMax= 1.91D-05  0.00D+00 EMaxC= 1.00D-01 BMatC= 8.04D-07 BMatP= 8.04D-07
 IDIUse=1 WtCom= 1.00D+00 WtEn= 0.00D+00
 Coeff-Com:  0.100D+01
 Coeff:      0.100D+01
 Gap=     0.178 Goal=   None    Shift=    0.000
 Gap=     0.204 Goal=   None    Shift=    0.000
 RMSDP=3.97D-06 MaxDP=3.20D-04 DE= 4.13D-05 OVMax= 2.10D-04

 Cycle  10  Pass 1  IDiag  1:
 RMSU=  1.63D-05    CP:  1.00D+00
 E= -481.557473306765     Delta-E=       -0.000000089062 Rises=F Damp=F
 DIIS: error= 1.01D-05 at cycle   2 NSaved=   2.
 NSaved= 2 IEnMin= 2 EnMin= -481.557473306765     IErMin= 2 ErrMin= 1.01D-05
 ErrMax= 1.01D-05  0.00D+00 EMaxC= 1.00D-01 BMatC= 3.47D-07 BMatP= 8.04D-07
 IDIUse=1 WtCom= 1.00D+00 WtEn= 0.00D+00
 Coeff-Com:  0.357D+00 0.643D+00
 Coeff:      0.357D+00 0.643D+00
 Gap=     0.178 Goal=   None    Shift=    0.000
 Gap=     0.204 Goal=   None    Shift=    0.000
 RMSDP=2.04D-06 MaxDP=9.16D-05 DE=-8.91D-08 OVMax= 1.01D-04

 Cycle  11  Pass 1  IDiag  1:
 RMSU=  2.03D-06    CP:  1.00D+00  1.01D+00
 E= -481.557473355545     Delta-E=       -0.000000048780 Rises=F Damp=F
 DIIS: error= 6.51D-06 at cycle   3 NSaved=   3.
 NSaved= 3 IEnMin= 3 EnMin= -481.557473355545     IErMin= 3 ErrMin= 6.51D-06
 ErrMax= 6.51D-06  0.00D+00 EMaxC= 1.00D-01 BMatC= 1.47D-07 BMatP= 3.47D-07
 IDIUse=1 WtCom= 1.00D+00 WtEn= 0.00D+00
 Coeff-Com:  0.547D-03 0.390D+00 0.610D+00
 Coeff:      0.547D-03 0.390D+00 0.610D+00
 Gap=     0.178 Goal=   None    Shift=    0.000
 Gap=     0.204 Goal=   None    Shift=    0.000
 RMSDP=8.86D-07 MaxDP=4.52D-05 DE=-4.88D-08 OVMax= 5.11D-05

 Cycle  12  Pass 1  IDiag  1:
 RMSU=  4.73D-07    CP:  1.00D+00  1.04D+00  6.85D-01
 E= -481.557473384143     Delta-E=       -0.000000028598 Rises=F Damp=F
 DIIS: error= 1.44D-06 at cycle   4 NSaved=   4.
 NSaved= 4 IEnMin= 4 EnMin= -481.557473384143     IErMin= 4 ErrMin= 1.44D-06
 ErrMax= 1.44D-06  0.00D+00 EMaxC= 1.00D-01 BMatC= 5.42D-09 BMatP= 1.47D-07
 IDIUse=1 WtCom= 1.00D+00 WtEn= 0.00D+00
 Coeff-Com: -0.155D-01 0.149D+00 0.258D+00 0.609D+00
 Coeff:     -0.155D-01 0.149D+00 0.258D+00 0.609D+00
 Gap=     0.178 Goal=   None    Shift=    0.000
 Gap=     0.204 Goal=   None    Shift=    0.000
 RMSDP=1.99D-07 MaxDP=1.39D-05 DE=-2.86D-08 OVMax= 1.58D-05

 Cycle  13  Pass 1  IDiag  1:
 RMSU=  1.85D-07    CP:  1.00D+00  1.04D+00  6.58D-01  9.31D-01
 E= -481.557473385590     Delta-E=       -0.000000001447 Rises=F Damp=F
 DIIS: error= 6.10D-07 at cycle   5 NSaved=   5.
 NSaved= 5 IEnMin= 5 EnMin= -481.557473385590     IErMin= 5 ErrMin= 6.10D-07
 ErrMax= 6.10D-07  0.00D+00 EMaxC= 1.00D-01 BMatC= 1.42D-09 BMatP= 5.42D-09
 IDIUse=1 WtCom= 1.00D+00 WtEn= 0.00D+00
 Coeff-Com: -0.471D-02-0.546D-01-0.993D-01 0.248D+00 0.911D+00
 Coeff:     -0.471D-02-0.546D-01-0.993D-01 0.248D+00 0.911D+00
 Gap=     0.178 Goal=   None    Shift=    0.000
 Gap=     0.204 Goal=   None    Shift=    0.000
 RMSDP=1.49D-07 MaxDP=9.22D-06 DE=-1.45D-09 OVMax= 1.65D-05

 Cycle  14  Pass 1  IDiag  1:
 RMSU=  1.09D-07    CP:  1.00D+00  1.04D+00  6.56D-01  1.13D+00  1.07D+00
 E= -481.557473386223     Delta-E=       -0.000000000633 Rises=F Damp=F
 DIIS: error= 3.91D-07 at cycle   6 NSaved=   6.
 NSaved= 6 IEnMin= 6 EnMin= -481.557473386223     IErMin= 6 ErrMin= 3.91D-07
 ErrMax= 3.91D-07  0.00D+00 EMaxC= 1.00D-01 BMatC= 2.53D-10 BMatP= 1.42D-09
 IDIUse=1 WtCom= 1.00D+00 WtEn= 0.00D+00
 Coeff-Com:  0.100D-02-0.554D-01-0.104D+00 0.115D-01 0.426D+00 0.721D+00
 Coeff:      0.100D-02-0.554D-01-0.104D+00 0.115D-01 0.426D+00 0.721D+00
 Gap=     0.178 Goal=   None    Shift=    0.000
 Gap=     0.204 Goal=   None    Shift=    0.000
 RMSDP=7.19D-08 MaxDP=6.41D-06 DE=-6.33D-10 OVMax= 1.37D-05

 Cycle  15  Pass 1  IDiag  1:
 RMSU=  5.16D-08    CP:  1.00D+00  1.04D+00  6.50D-01  1.21D+00  1.23D+00
                    CP:  1.10D+00
 E= -481.557473386398     Delta-E=       -0.000000000176 Rises=F Damp=F
 DIIS: error= 2.86D-07 at cycle   7 NSaved=   7.
 NSaved= 7 IEnMin= 7 EnMin= -481.557473386398     IErMin= 7 ErrMin= 2.86D-07
 ErrMax= 2.86D-07  0.00D+00 EMaxC= 1.00D-01 BMatC= 9.22D-11 BMatP= 2.53D-10
 IDIUse=1 WtCom= 1.00D+00 WtEn= 0.00D+00
 Coeff-Com:  0.996D-03-0.255D-01-0.485D-01-0.222D-01 0.138D+00 0.423D+00
 Coeff-Com:  0.534D+00
 Coeff:      0.996D-03-0.255D-01-0.485D-01-0.222D-01 0.138D+00 0.423D+00
 Coeff:      0.534D+00
 Gap=     0.178 Goal=   None    Shift=    0.000
 Gap=     0.204 Goal=   None    Shift=    0.000
 RMSDP=3.25D-08 MaxDP=3.41D-06 DE=-1.76D-10 OVMax= 6.69D-06

 Cycle  16  Pass 1  IDiag  1:
 RMSU=  2.71D-08    CP:  1.00D+00  1.04D+00  6.49D-01  1.22D+00  1.27D+00
                    CP:  1.22D+00  1.12D+00
 E= -481.557473386467     Delta-E=       -0.000000000069 Rises=F Damp=F
 DIIS: error= 1.88D-07 at cycle   8 NSaved=   8.
 NSaved= 8 IEnMin= 8 EnMin= -481.557473386467     IErMin= 8 ErrMin= 1.88D-07
 ErrMax= 1.88D-07  0.00D+00 EMaxC= 1.00D-01 BMatC= 3.22D-11 BMatP= 9.22D-11
 IDIUse=1 WtCom= 1.00D+00 WtEn= 0.00D+00
 Coeff-Com: -0.725D-04 0.189D-01 0.361D-01-0.176D-01-0.173D+00-0.222D+00
 Coeff-Com:  0.219D+00 0.114D+01
 Coeff:     -0.725D-04 0.189D-01 0.361D-01-0.176D-01-0.173D+00-0.222D+00
 Coeff:      0.219D+00 0.114D+01
 Gap=     0.178 Goal=   None    Shift=    0.000
 Gap=     0.204 Goal=   None    Shift=    0.000
 RMSDP=5.09D-08 MaxDP=5.15D-06 DE=-6.89D-11 OVMax= 1.13D-05

 Cycle  17  Pass 1  IDiag  1:
 RMSU=  2.10D-08    CP:  1.00D+00  1.04D+00  6.50D-01  1.23D+00  1.35D+00
                    CP:  1.46D+00  1.71D+00  1.64D+00
 E= -481.557473386498     Delta-E=       -0.000000000030 Rises=F Damp=F
 DIIS: error= 1.14D-07 at cycle   9 NSaved=   9.
 NSaved= 9 IEnMin= 9 EnMin= -481.557473386498     IErMin= 9 ErrMin= 1.14D-07
 ErrMax= 1.14D-07  0.00D+00 EMaxC= 1.00D-01 BMatC= 1.70D-11 BMatP= 3.22D-11
 IDIUse=1 WtCom= 1.00D+00 WtEn= 0.00D+00
 Coeff-Com: -0.814D-03 0.330D-01 0.630D-01 0.570D-02-0.217D+00-0.473D+00
 Coeff-Com: -0.257D+00 0.766D+00 0.108D+01
 Coeff:     -0.814D-03 0.330D-01 0.630D-01 0.570D-02-0.217D+00-0.473D+00
 Coeff:     -0.257D+00 0.766D+00 0.108D+01
 Gap=     0.178 Goal=   None    Shift=    0.000
 Gap=     0.204 Goal=   None    Shift=    0.000
 RMSDP=5.86D-08 MaxDP=5.62D-06 DE=-3.05D-11 OVMax= 1.17D-05

 Cycle  18  Pass 1  IDiag  1:
 RMSU=  1.32D-08    CP:  1.00D+00  1.04D+00  6.51D-01  1.25D+00  1.43D+00
                    CP:  1.72D+00  2.33D+00  2.67D+00  1.92D+00
 E= -481.557473386607     Delta-E=       -0.000000000109 Rises=F Damp=F
 DIIS: error= 3.26D-08 at cycle  10 NSaved=  10.
 NSaved=10 IEnMin=10 EnMin= -481.557473386607     IErMin=10 ErrMin= 3.26D-08
 ErrMax= 3.26D-08  0.00D+00 EMaxC= 1.00D-01 BMatC= 2.51D-12 BMatP= 1.70D-11
 IDIUse=1 WtCom= 1.00D+00 WtEn= 0.00D+00
 Coeff-Com: -0.192D-03 0.213D-02 0.448D-02 0.556D-02 0.283D-02-0.591D-01
 Coeff-Com: -0.167D+00-0.162D+00 0.312D+00 0.106D+01
 Coeff:     -0.192D-03 0.213D-02 0.448D-02 0.556D-02 0.283D-02-0.591D-01
 Coeff:     -0.167D+00-0.162D+00 0.312D+00 0.106D+01
 Gap=     0.178 Goal=   None    Shift=    0.000
 Gap=     0.204 Goal=   None    Shift=    0.000
 RMSDP=2.89D-08 MaxDP=2.71D-06 DE=-1.09D-10 OVMax= 6.01D-06

 Cycle  19  Pass 1  IDiag  1:
 RMSU=  6.01D-09    CP:  1.00D+00  1.04D+00  6.51D-01  1.27D+00  1.48D+00
                    CP:  1.82D+00  2.62D+00  3.00D+00  2.52D+00  1.32D+00
 E= -481.557473386608     Delta-E=       -0.000000000001 Rises=F Damp=F
 DIIS: error= 8.80D-09 at cycle  11 NSaved=  11.
 NSaved=11 IEnMin=11 EnMin= -481.557473386608     IErMin=11 ErrMin= 8.80D-09
 ErrMax= 8.80D-09  0.00D+00 EMaxC= 1.00D-01 BMatC= 2.25D-13 BMatP= 2.51D-12
 IDIUse=1 WtCom= 1.00D+00 WtEn= 0.00D+00
 Coeff-Com:  0.311D-04-0.286D-02-0.519D-02 0.719D-03 0.249D-01 0.323D-01
 Coeff-Com: -0.285D-01-0.116D+00-0.253D-01 0.293D+00 0.826D+00
 Coeff:      0.311D-04-0.286D-02-0.519D-02 0.719D-03 0.249D-01 0.323D-01
 Coeff:     -0.285D-01-0.116D+00-0.253D-01 0.293D+00 0.826D+00
 Gap=     0.178 Goal=   None    Shift=    0.000
 Gap=     0.204 Goal=   None    Shift=    0.000
 RMSDP=4.22D-09 MaxDP=3.72D-07 DE=-9.09D-13 OVMax= 7.60D-07

 SCF Done:  E(UPBE1PBE) =  -481.557473387     A.U. after   19 cycles
            NFock= 19  Conv=0.42D-08     -V/T= 1.9950
 <Sx>= 0.0000 <Sy>= 0.0000 <Sz>= 0.5000 <S**2>= 0.7530 S= 0.5015
 <L.S>=  0.00000000000    
 KE= 4.839556605969D+02 PE=-2.547390378006D+03 EE= 8.697861971857D+02
 Annihilation of the first spin contaminant:
 S**2 before annihilation     0.7530,   after     0.7500
 Leave Link  502 at Sun Jun 23 21:42:04 2019, MaxMem=  8053063680 cpu:               0.0 elap:              61.1
 (Enter /data2/g16/g16/l601.exe)
 Copying SCF densities to generalized density rwf, IOpCl= 1 IROHF=0.

 **********************************************************************

            Population analysis using the SCF Density.

 **********************************************************************

 Orbital symmetries:
 Alpha Orbitals:
       Occupied  (A) (A) (A) (A) (A) (A) (A) (A) (A) (A) (A) (A)
                 (A) (A) (A) (A) (A) (A) (A) (A) (A) (A) (A) (A)
                 (A) (A) (A) (A) (A) (A) (A) (A) (A) (A) (A) (A)
                 (A) (A) (A) (A) (A) (A) (A)
       Virtual   (A) (A) (A) (A) (A) (A) (A) (A) (A) (A) (A) (A)
                 (A) (A) (A) (A) (A) (A) (A) (A) (A) (A) (A) (A)
                 (A) (A) (A) (A) (A) (A) (A) (A) (A) (A) (A) (A)
                 (A) (A) (A) (A) (A) (A) (A) (A) (A) (A) (A) (A)
                 (A) (A) (A) (A) (A) (A) (A) (A) (A) (A) (A) (A)
                 (A) (A) (A) (A) (A) (A) (A) (A) (A) (A) (A) (A)
                 (A) (A) (A) (A) (A) (A) (A) (A) (A) (A) (A) (A)
                 (A) (A) (A) (A) (A) (A) (A) (A) (A) (A) (A) (A)
                 (A) (A) (A) (A) (A) (A) (A) (A) (A) (A) (A) (A)
                 (A) (A) (A) (A) (A) (A) (A) (A) (A) (A) (A) (A)
                 (A) (A) (A) (A) (A) (A) (A) (A) (A) (A) (A) (A)
                 (A) (A) (A) (A) (A) (A) (A) (A) (A) (A) (A) (A)
                 (A) (A) (A) (A) (A) (A) (A) (A) (A) (A) (A) (A)
                 (A) (A) (A) (A) (A) (A) (A) (A) (A) (A) (A) (A)
                 (A) (A) (A) (A) (A) (A) (A) (A) (A) (A) (A) (A)
                 (A) (A) (A) (A) (A) (A) (A) (A) (A) (A) (A) (A)
                 (A) (A) (A) (A) (A) (A) (A) (A) (A) (A) (A) (A)
                 (A) (A) (A) (A) (A) (A) (A) (A) (A) (A) (A) (A)
                 (A) (A) (A) (A) (A) (A) (A) (A) (A) (A) (A) (A)
                 (A) (A) (A) (A) (A) (A) (A) (A) (A) (A) (A) (A)
                 (A) (A) (A) (A) (A) (A) (A) (A) (A) (A) (A) (A)
                 (A) (A) (A) (A) (A) (A) (A) (A) (A) (A) (A) (A)
                 (A) (A) (A) (A)
 Beta  Orbitals:
       Occupied  (A) (A) (A) (A) (A) (A) (A) (A) (A) (A) (A) (A)
                 (A) (A) (A) (A) (A) (A) (A) (A) (A) (A) (A) (A)
                 (A) (A) (A) (A) (A) (A) (A) (A) (A) (A) (A) (A)
                 (A) (A) (A) (A) (A) (A)
       Virtual   (A) (A) (A) (A) (A) (A) (A) (A) (A) (A) (A) (A)
                 (A) (A) (A) (A) (A) (A) (A) (A) (A) (A) (A) (A)
                 (A) (A) (A) (A) (A) (A) (A) (A) (A) (A) (A) (A)
                 (A) (A) (A) (A) (A) (A) (A) (A) (A) (A) (A) (A)
                 (A) (A) (A) (A) (A) (A) (A) (A) (A) (A) (A) (A)
                 (A) (A) (A) (A) (A) (A) (A) (A) (A) (A) (A) (A)
                 (A) (A) (A) (A) (A) (A) (A) (A) (A) (A) (A) (A)
                 (A) (A) (A) (A) (A) (A) (A) (A) (A) (A) (A) (A)
                 (A) (A) (A) (A) (A) (A) (A) (A) (A) (A) (A) (A)
                 (A) (A) (A) (A) (A) (A) (A) (A) (A) (A) (A) (A)
                 (A) (A) (A) (A) (A) (A) (A) (A) (A) (A) (A) (A)
                 (A) (A) (A) (A) (A) (A) (A) (A) (A) (A) (A) (A)
                 (A) (A) (A) (A) (A) (A) (A) (A) (A) (A) (A) (A)
                 (A) (A) (A) (A) (A) (A) (A) (A) (A) (A) (A) (A)
                 (A) (A) (A) (A) (A) (A) (A) (A) (A) (A) (A) (A)
                 (A) (A) (A) (A) (A) (A) (A) (A) (A) (A) (A) (A)
                 (A) (A) (A) (A) (A) (A) (A) (A) (A) (A) (A) (A)
                 (A) (A) (A) (A) (A) (A) (A) (A) (A) (A) (A) (A)
                 (A) (A) (A) (A) (A) (A) (A) (A) (A) (A) (A) (A)
                 (A) (A) (A) (A) (A) (A) (A) (A) (A) (A) (A) (A)
                 (A) (A) (A) (A) (A) (A) (A) (A) (A) (A) (A) (A)
                 (A) (A) (A) (A) (A) (A) (A) (A) (A) (A) (A) (A)
                 (A) (A) (A) (A) (A)
 The electronic state is 2-A.
 Alpha  occ. eigenvalues --  -19.21901 -14.48540 -10.25627 -10.24852 -10.24805
 Alpha  occ. eigenvalues --  -10.20866 -10.20369 -10.17511 -10.16713 -10.16504
 Alpha  occ. eigenvalues --  -10.16040  -1.27582  -0.93628  -0.86552  -0.80584
 Alpha  occ. eigenvalues --   -0.78326  -0.75850  -0.74630  -0.72199  -0.67002
 Alpha  occ. eigenvalues --   -0.62137  -0.57104  -0.55008  -0.53001  -0.50063
 Alpha  occ. eigenvalues --   -0.49018  -0.47714  -0.46879  -0.45339  -0.44914
 Alpha  occ. eigenvalues --   -0.44014  -0.44002  -0.43170  -0.42835  -0.42454
 Alpha  occ. eigenvalues --   -0.42055  -0.36839  -0.36321  -0.35666  -0.34738
 Alpha  occ. eigenvalues --   -0.25482  -0.23431  -0.18620
 Alpha virt. eigenvalues --   -0.00861   0.03090   0.03734   0.04344   0.04579
 Alpha virt. eigenvalues --    0.06101   0.06452   0.06536   0.07204   0.08074
 Alpha virt. eigenvalues --    0.09254   0.09742   0.10010   0.10558   0.10932
 Alpha virt. eigenvalues --    0.11569   0.12390   0.13235   0.14474   0.14855
 Alpha virt. eigenvalues --    0.15363   0.16115   0.16669   0.18149   0.18904
 Alpha virt. eigenvalues --    0.19187   0.20080   0.20281   0.20596   0.21890
 Alpha virt. eigenvalues --    0.22006   0.23267   0.23862   0.24428   0.25271
 Alpha virt. eigenvalues --    0.26048   0.26543   0.27002   0.27382   0.28593
 Alpha virt. eigenvalues --    0.29474   0.29804   0.31829   0.32162   0.33370
 Alpha virt. eigenvalues --    0.33867   0.34158   0.35367   0.36302   0.36337
 Alpha virt. eigenvalues --    0.36778   0.37811   0.38263   0.39403   0.42625
 Alpha virt. eigenvalues --    0.43594   0.46742   0.48321   0.48820   0.49661
 Alpha virt. eigenvalues --    0.50105   0.51333   0.52778   0.55008   0.55229
 Alpha virt. eigenvalues --    0.56257   0.57492   0.57918   0.60420   0.60783
 Alpha virt. eigenvalues --    0.61450   0.62556   0.63012   0.64499   0.65031
 Alpha virt. eigenvalues --    0.66703   0.67710   0.68448   0.69219   0.70300
 Alpha virt. eigenvalues --    0.71709   0.72825   0.74770   0.76547   0.77007
 Alpha virt. eigenvalues --    0.79069   0.80949   0.81420   0.82136   0.84635
 Alpha virt. eigenvalues --    0.84935   0.86910   0.87335   0.90005   0.91897
 Alpha virt. eigenvalues --    0.93460   0.94566   0.94993   0.96707   0.96858
 Alpha virt. eigenvalues --    0.97709   0.98663   0.99205   0.99608   1.00334
 Alpha virt. eigenvalues --    1.00640   1.02814   1.03757   1.05807   1.08311
 Alpha virt. eigenvalues --    1.09301   1.09845   1.11455   1.13482   1.13679
 Alpha virt. eigenvalues --    1.15951   1.16551   1.18302   1.20705   1.24375
 Alpha virt. eigenvalues --    1.26329   1.30509   1.34163   1.35113   1.37618
 Alpha virt. eigenvalues --    1.40250   1.43213   1.43848   1.47488   1.50678
 Alpha virt. eigenvalues --    1.52697   1.54652   1.57889   1.60522   1.61703
 Alpha virt. eigenvalues --    1.62579   1.63391   1.64602   1.66215   1.67535
 Alpha virt. eigenvalues --    1.68445   1.69270   1.72331   1.73235   1.75711
 Alpha virt. eigenvalues --    1.77801   1.79188   1.80736   1.82606   1.84461
 Alpha virt. eigenvalues --    1.84889   1.86191   1.86342   1.87539   1.89325
 Alpha virt. eigenvalues --    1.90144   1.91732   1.92466   1.94002   1.95128
 Alpha virt. eigenvalues --    1.96396   1.97713   1.98549   1.99061   2.05517
 Alpha virt. eigenvalues --    2.05943   2.07861   2.09295   2.11176   2.11476
 Alpha virt. eigenvalues --    2.14111   2.15052   2.17005   2.18826   2.20315
 Alpha virt. eigenvalues --    2.21548   2.22450   2.25193   2.27854   2.30035
 Alpha virt. eigenvalues --    2.32796   2.35506   2.40389   2.41306   2.45823
 Alpha virt. eigenvalues --    2.47070   2.51031   2.54335   2.56645   2.59896
 Alpha virt. eigenvalues --    2.61854   2.64248   2.65002   2.66084   2.67884
 Alpha virt. eigenvalues --    2.68896   2.70378   2.71471   2.75650   2.77232
 Alpha virt. eigenvalues --    2.79509   2.82381   2.84894   2.88167   2.89076
 Alpha virt. eigenvalues --    2.92161   2.95421   2.96995   2.98574   2.99915
 Alpha virt. eigenvalues --    3.03119   3.05185   3.06051   3.08198   3.08776
 Alpha virt. eigenvalues --    3.09888   3.10453   3.11689   3.13558   3.15458
 Alpha virt. eigenvalues --    3.17168   3.17827   3.19265   3.20998   3.25699
 Alpha virt. eigenvalues --    3.25753   3.32858   3.33009   3.43070   3.46348
 Alpha virt. eigenvalues --    3.47387   3.50739   3.54986   3.58058   3.59194
 Alpha virt. eigenvalues --    3.61070   3.62311   3.64961   3.66945   3.68365
 Alpha virt. eigenvalues --    3.69199   3.73205   3.74402   3.76515   3.81160
 Alpha virt. eigenvalues --    4.07154   4.55061   4.67921   4.71288   4.81051
 Alpha virt. eigenvalues --    4.91556   4.94119   5.01652   5.02827   5.12193
 Alpha virt. eigenvalues --    5.49343   6.14068  58.52314  58.54362  58.55114
 Alpha virt. eigenvalues --   58.59135  58.59759  58.62551  58.63325  58.63591
 Alpha virt. eigenvalues --   58.64020  95.69017 106.40721
  Beta  occ. eigenvalues --  -19.20499 -14.47555 -10.25571 -10.24834 -10.24746
  Beta  occ. eigenvalues --  -10.20867 -10.20365 -10.17486 -10.16689 -10.16472
  Beta  occ. eigenvalues --  -10.16013  -1.25453  -0.92855  -0.86382  -0.80452
  Beta  occ. eigenvalues --   -0.77722  -0.75679  -0.74519  -0.71281  -0.66673
  Beta  occ. eigenvalues --   -0.61584  -0.55403  -0.52398  -0.50951  -0.49777
  Beta  occ. eigenvalues --   -0.48732  -0.47423  -0.46668  -0.45163  -0.44491
  Beta  occ. eigenvalues --   -0.43948  -0.43506  -0.42893  -0.42551  -0.42149
  Beta  occ. eigenvalues --   -0.40876  -0.36454  -0.35782  -0.35485  -0.34299
  Beta  occ. eigenvalues --   -0.24589  -0.22935
  Beta virt. eigenvalues --   -0.02556  -0.00759   0.03114   0.03771   0.04407
  Beta virt. eigenvalues --    0.04723   0.06134   0.06526   0.06691   0.07290
  Beta virt. eigenvalues --    0.08149   0.09365   0.09779   0.10076   0.10636
  Beta virt. eigenvalues --    0.11028   0.11627   0.12455   0.13481   0.14619
  Beta virt. eigenvalues --    0.14934   0.15469   0.16206   0.16840   0.18432
  Beta virt. eigenvalues --    0.19016   0.19337   0.20240   0.20617   0.20826
  Beta virt. eigenvalues --    0.22155   0.22437   0.23516   0.24056   0.24696
  Beta virt. eigenvalues --    0.25543   0.26371   0.26707   0.27245   0.27554
  Beta virt. eigenvalues --    0.28811   0.29789   0.29966   0.31912   0.32374
  Beta virt. eigenvalues --    0.33561   0.33968   0.34288   0.35469   0.36425
  Beta virt. eigenvalues --    0.36764   0.36880   0.38013   0.38385   0.39613
  Beta virt. eigenvalues --    0.42715   0.43673   0.46819   0.48652   0.49059
  Beta virt. eigenvalues --    0.49733   0.50449   0.51523   0.52918   0.55339
  Beta virt. eigenvalues --    0.55657   0.56584   0.57617   0.58027   0.60538
  Beta virt. eigenvalues --    0.61001   0.61707   0.62702   0.63206   0.64678
  Beta virt. eigenvalues --    0.65479   0.67027   0.67942   0.68720   0.69692
  Beta virt. eigenvalues --    0.70842   0.71817   0.73037   0.75053   0.76703
  Beta virt. eigenvalues --    0.77393   0.79394   0.81153   0.81566   0.82563
  Beta virt. eigenvalues --    0.84865   0.85047   0.87110   0.87460   0.90190
  Beta virt. eigenvalues --    0.92023   0.93601   0.94863   0.95962   0.96973
  Beta virt. eigenvalues --    0.97349   0.97909   0.98992   0.99425   0.99854
  Beta virt. eigenvalues --    1.00517   1.00872   1.02933   1.04209   1.06295
  Beta virt. eigenvalues --    1.08402   1.09466   1.10068   1.11631   1.13743
  Beta virt. eigenvalues --    1.13945   1.16124   1.16628   1.18427   1.21234
  Beta virt. eigenvalues --    1.24893   1.26715   1.30628   1.34298   1.35408
  Beta virt. eigenvalues --    1.37763   1.40894   1.43444   1.44108   1.48994
  Beta virt. eigenvalues --    1.50891   1.53187   1.54768   1.58136   1.60592
  Beta virt. eigenvalues --    1.61842   1.62680   1.63557   1.64737   1.66576
  Beta virt. eigenvalues --    1.67873   1.68649   1.69805   1.72575   1.73362
  Beta virt. eigenvalues --    1.75829   1.77940   1.79351   1.80879   1.82725
  Beta virt. eigenvalues --    1.84621   1.85206   1.86449   1.86666   1.87657
  Beta virt. eigenvalues --    1.89497   1.90302   1.91853   1.92567   1.94302
  Beta virt. eigenvalues --    1.95261   1.96535   1.97940   1.98676   1.99226
  Beta virt. eigenvalues --    2.05744   2.06478   2.08114   2.09570   2.11421
  Beta virt. eigenvalues --    2.12129   2.14667   2.15813   2.17246   2.19549
  Beta virt. eigenvalues --    2.20507   2.21785   2.22611   2.25405   2.28000
  Beta virt. eigenvalues --    2.30122   2.32948   2.35729   2.40579   2.41379
  Beta virt. eigenvalues --    2.45910   2.47885   2.51614   2.54533   2.56815
  Beta virt. eigenvalues --    2.60142   2.62524   2.64371   2.65453   2.66290
  Beta virt. eigenvalues --    2.68053   2.69159   2.70720   2.71687   2.76193
  Beta virt. eigenvalues --    2.77725   2.79986   2.82901   2.85078   2.88662
  Beta virt. eigenvalues --    2.90594   2.92847   2.95827   2.97447   2.99388
  Beta virt. eigenvalues --    3.00595   3.03224   3.05424   3.06273   3.08383
  Beta virt. eigenvalues --    3.08948   3.10172   3.10986   3.12097   3.13785
  Beta virt. eigenvalues --    3.15564   3.17479   3.17903   3.19404   3.21494
  Beta virt. eigenvalues --    3.25901   3.26694   3.33095   3.33476   3.43120
  Beta virt. eigenvalues --    3.46806   3.47921   3.52354   3.55852   3.58377
  Beta virt. eigenvalues --    3.59262   3.61103   3.62360   3.65020   3.67024
  Beta virt. eigenvalues --    3.68421   3.69576   3.73450   3.74713   3.76586
  Beta virt. eigenvalues --    3.81236   4.08754   4.55128   4.67992   4.71578
  Beta virt. eigenvalues --    4.81097   4.91664   4.94182   5.01689   5.02976
  Beta virt. eigenvalues --    5.12307   5.51168   6.16538  58.52343  58.54412
  Beta virt. eigenvalues --   58.55156  58.59139  58.59765  58.62572  58.63348
  Beta virt. eigenvalues --   58.63617  58.64045  95.69823 106.41833
          Condensed to atoms (all electrons):
               1          2          3          4          5          6
     1  C    5.614439   0.239692  -0.073666   0.009021  -0.275616   0.020571
     2  C    0.239692   5.247128   0.629267  -0.045500  -0.130031  -0.009464
     3  C   -0.073666   0.629267   5.289518   0.240687   0.244460  -0.044568
     4  C    0.009021  -0.045500   0.240687   4.949799  -0.044081   0.000304
     5  C   -0.275616  -0.130031   0.244460  -0.044081   5.714997   0.243514
     6  C    0.020571  -0.009464  -0.044568   0.000304   0.243514   4.997227
     7  C    0.027102   0.014764  -0.061530   0.008138   0.267883  -0.088911
     8  C    0.257941  -0.036376   0.011860  -0.000848   0.019849  -0.005103
     9  C    0.237745  -0.050358  -0.011267  -0.000716   0.040476   0.006770
    10  N    0.241385  -0.098006  -0.014778   0.010286   0.155284  -0.053022
    11  O   -0.132410   0.006342   0.001620  -0.003973  -0.174895  -0.003683
    12  H   -0.085820   0.444093  -0.044921  -0.003145   0.021160  -0.000741
    13  H   -0.000745   0.004907  -0.050641   0.424042  -0.011262   0.004739
    14  H    0.001059   0.013289  -0.074899   0.439074  -0.001275  -0.000510
    15  H    0.012584  -0.002515  -0.007194  -0.000781  -0.062941   0.442572
    16  H   -0.001950   0.004163   0.009054   0.002158  -0.059800   0.433829
    17  H    0.001592   0.003655   0.016636  -0.001048  -0.088870   0.431481
    18  H    0.008406  -0.005501  -0.002201  -0.001673  -0.059037  -0.008419
    19  H    0.008768  -0.004646  -0.000755  -0.000378  -0.077828   0.013863
    20  H   -0.004821   0.004615   0.004019   0.003699  -0.078130   0.001226
    21  H   -0.097087   0.040672   0.006874   0.000039  -0.007599   0.000396
    22  H   -0.044800  -0.001421  -0.003459   0.000096   0.008027   0.000321
    23  H   -0.067831  -0.015577  -0.001422  -0.000460   0.009098  -0.000107
    24  H   -0.074553   0.009787   0.007913  -0.000551  -0.007012  -0.000732
    25  H   -0.055690  -0.012214  -0.003072   0.000074   0.012069   0.000485
    26  H   -0.075369   0.029976   0.008067  -0.000071  -0.003512   0.000378
    27  H    0.003102   0.003849  -0.038498   0.411376  -0.002054   0.000661
               7          8          9         10         11         12
     1  C    0.027102   0.257941   0.237745   0.241385  -0.132410  -0.085820
     2  C    0.014764  -0.036376  -0.050358  -0.098006   0.006342   0.444093
     3  C   -0.061530   0.011860  -0.011267  -0.014778   0.001620  -0.044921
     4  C    0.008138  -0.000848  -0.000716   0.010286  -0.003973  -0.003145
     5  C    0.267883   0.019849   0.040476   0.155284  -0.174895   0.021160
     6  C   -0.088911  -0.005103   0.006770  -0.053022  -0.003683  -0.000741
     7  C    5.038494   0.002092  -0.006246  -0.090327   0.004289  -0.001618
     8  C    0.002092   5.026493  -0.096275  -0.063863  -0.006151  -0.000176
     9  C   -0.006246  -0.096275   5.031070  -0.058768  -0.008317   0.006011
    10  N   -0.090327  -0.063863  -0.058768   7.183079  -0.183064   0.003995
    11  O    0.004289  -0.006151  -0.008317  -0.183064   8.976546  -0.001483
    12  H   -0.001618  -0.000176   0.006011   0.003995  -0.001483   0.515262
    13  H   -0.000245   0.000001   0.000207   0.001121   0.000018   0.000067
    14  H    0.004482   0.000275  -0.000133  -0.006138   0.000199  -0.000034
    15  H   -0.006512  -0.000120   0.000344   0.000819   0.011674   0.000018
    16  H   -0.003830   0.000006   0.000278  -0.000666  -0.000874  -0.000005
    17  H    0.015113  -0.000016  -0.001467  -0.006675   0.005236  -0.000170
    18  H    0.434168  -0.000472   0.000346   0.002567   0.013129   0.000011
    19  H    0.433159  -0.000663  -0.000180   0.005065   0.002552  -0.000014
    20  H    0.432050   0.000170   0.000304   0.016867  -0.004272  -0.000000
    21  H    0.000158   0.434488   0.001036  -0.002829  -0.003469   0.000552
    22  H   -0.000716   0.432538  -0.010062  -0.010163   0.014440  -0.000034
    23  H   -0.000886   0.431074   0.014871   0.008231   0.002737  -0.000037
    24  H    0.000092   0.014946   0.428252  -0.005293   0.001380   0.000210
    25  H   -0.000079  -0.007876   0.442027   0.007045   0.006654   0.000067
    26  H   -0.000018  -0.007101   0.437346  -0.012181   0.000531   0.001160
    27  H   -0.000511  -0.000242   0.000030   0.000481  -0.000052   0.001601
              13         14         15         16         17         18
     1  C   -0.000745   0.001059   0.012584  -0.001950   0.001592   0.008406
     2  C    0.004907   0.013289  -0.002515   0.004163   0.003655  -0.005501
     3  C   -0.050641  -0.074899  -0.007194   0.009054   0.016636  -0.002201
     4  C    0.424042   0.439074  -0.000781   0.002158  -0.001048  -0.001673
     5  C   -0.011262  -0.001275  -0.062941  -0.059800  -0.088870  -0.059037
     6  C    0.004739  -0.000510   0.442572   0.433829   0.431481  -0.008419
     7  C   -0.000245   0.004482  -0.006512  -0.003830   0.015113   0.434168
     8  C    0.000001   0.000275  -0.000120   0.000006  -0.000016  -0.000472
     9  C    0.000207  -0.000133   0.000344   0.000278  -0.001467   0.000346
    10  N    0.001121  -0.006138   0.000819  -0.000666  -0.006675   0.002567
    11  O    0.000018   0.000199   0.011674  -0.000874   0.005236   0.013129
    12  H    0.000067  -0.000034   0.000018  -0.000005  -0.000170   0.000011
    13  H    0.539983  -0.030595  -0.000100   0.000503   0.000011  -0.000029
    14  H   -0.030595   0.510425  -0.000006  -0.000016  -0.000004  -0.000023
    15  H   -0.000100  -0.000006   0.500579  -0.027847  -0.016807   0.004241
    16  H    0.000503  -0.000016  -0.027847   0.534782  -0.022682  -0.000745
    17  H    0.000011  -0.000004  -0.016807  -0.022682   0.541484   0.000406
    18  H   -0.000029  -0.000023   0.004241  -0.000745   0.000406   0.522595
    19  H    0.000156  -0.000117   0.000137   0.000102  -0.000449  -0.020851
    20  H    0.000528  -0.000612  -0.000994   0.001739  -0.000018  -0.029980
    21  H   -0.000000   0.000000   0.000000  -0.000000  -0.000002   0.000000
    22  H   -0.000000  -0.000001  -0.000006   0.000000  -0.000007  -0.000003
    23  H    0.000000  -0.000002   0.000000   0.000000  -0.000001   0.000001
    24  H    0.000000  -0.000000  -0.000040  -0.000022  -0.001070  -0.000004
    25  H   -0.000000   0.000000  -0.000059  -0.000002  -0.000134  -0.000004
    26  H    0.000000  -0.000001  -0.000001  -0.000004  -0.000049   0.000000
    27  H   -0.023701  -0.019848   0.000005  -0.000074  -0.000036  -0.000001
              19         20         21         22         23         24
     1  C    0.008768  -0.004821  -0.097087  -0.044800  -0.067831  -0.074553
     2  C   -0.004646   0.004615   0.040672  -0.001421  -0.015577   0.009787
     3  C   -0.000755   0.004019   0.006874  -0.003459  -0.001422   0.007913
     4  C   -0.000378   0.003699   0.000039   0.000096  -0.000460  -0.000551
     5  C   -0.077828  -0.078130  -0.007599   0.008027   0.009098  -0.007012
     6  C    0.013863   0.001226   0.000396   0.000321  -0.000107  -0.000732
     7  C    0.433159   0.432050   0.000158  -0.000716  -0.000886   0.000092
     8  C   -0.000663   0.000170   0.434488   0.432538   0.431074   0.014946
     9  C   -0.000180   0.000304   0.001036  -0.010062   0.014871   0.428252
    10  N    0.005065   0.016867  -0.002829  -0.010163   0.008231  -0.005293
    11  O    0.002552  -0.004272  -0.003469   0.014440   0.002737   0.001380
    12  H   -0.000014  -0.000000   0.000552  -0.000034  -0.000037   0.000210
    13  H    0.000156   0.000528  -0.000000  -0.000000   0.000000   0.000000
    14  H   -0.000117  -0.000612   0.000000  -0.000001  -0.000002  -0.000000
    15  H    0.000137  -0.000994   0.000000  -0.000006   0.000000  -0.000040
    16  H    0.000102   0.001739  -0.000000   0.000000   0.000000  -0.000022
    17  H   -0.000449  -0.000018  -0.000002  -0.000007  -0.000001  -0.001070
    18  H   -0.020851  -0.029980   0.000000  -0.000003   0.000001  -0.000004
    19  H    0.523894  -0.020667   0.000002  -0.000010  -0.000005  -0.000001
    20  H   -0.020667   0.546799  -0.000000   0.000000   0.000000  -0.000001
    21  H    0.000002  -0.000000   0.553737  -0.029532  -0.023672   0.000617
    22  H   -0.000010   0.000000  -0.029532   0.513052  -0.021145   0.000119
    23  H   -0.000005   0.000000  -0.023672  -0.021145   0.527329  -0.000491
    24  H   -0.000001  -0.000001   0.000617   0.000119  -0.000491   0.540412
    25  H    0.000000   0.000000  -0.002266   0.003105   0.000457  -0.022434
    26  H    0.000001  -0.000000   0.002091  -0.000180  -0.000038  -0.021581
    27  H   -0.000006   0.000041   0.000000   0.000000   0.000002  -0.000000
              25         26         27
     1  C   -0.055690  -0.075369   0.003102
     2  C   -0.012214   0.029976   0.003849
     3  C   -0.003072   0.008067  -0.038498
     4  C    0.000074  -0.000071   0.411376
     5  C    0.012069  -0.003512  -0.002054
     6  C    0.000485   0.000378   0.000661
     7  C   -0.000079  -0.000018  -0.000511
     8  C   -0.007876  -0.007101  -0.000242
     9  C    0.442027   0.437346   0.000030
    10  N    0.007045  -0.012181   0.000481
    11  O    0.006654   0.000531  -0.000052
    12  H    0.000067   0.001160   0.001601
    13  H   -0.000000   0.000000  -0.023701
    14  H    0.000000  -0.000001  -0.019848
    15  H   -0.000059  -0.000001   0.000005
    16  H   -0.000002  -0.000004  -0.000074
    17  H   -0.000134  -0.000049  -0.000036
    18  H   -0.000004   0.000000  -0.000001
    19  H    0.000000   0.000001  -0.000006
    20  H    0.000000  -0.000000   0.000041
    21  H   -0.002266   0.002091   0.000000
    22  H    0.003105  -0.000180   0.000000
    23  H    0.000457  -0.000038   0.000002
    24  H   -0.022434  -0.021581  -0.000000
    25  H    0.504615  -0.027863   0.000000
    26  H   -0.027863   0.530066  -0.000000
    27  H    0.000000  -0.000000   0.537709
          Atomic-Atomic Spin Densities.
               1          2          3          4          5          6
     1  C    0.056243  -0.007991  -0.001907  -0.001376   0.011173  -0.001034
     2  C   -0.007991   0.002999   0.005642  -0.000189  -0.006197   0.002492
     3  C   -0.001907   0.005642   0.012571  -0.003397  -0.003315   0.008180
     4  C   -0.001376  -0.000189  -0.003397   0.007043  -0.000761  -0.002215
     5  C    0.011173  -0.006197  -0.003315  -0.000761   0.042594  -0.020870
     6  C   -0.001034   0.002492   0.008180  -0.002215  -0.020870   0.036589
     7  C    0.000467  -0.002199  -0.004628   0.002861   0.016567  -0.009024
     8  C    0.016097  -0.006965   0.001038   0.000314  -0.002006  -0.000949
     9  C   -0.022040   0.008366   0.000537  -0.000350   0.001123   0.002015
    10  N   -0.024743  -0.000538  -0.013563   0.002818  -0.010611  -0.019714
    11  O   -0.019283   0.004897   0.006073  -0.001134  -0.014951   0.023801
    12  H   -0.001067   0.000185   0.000151   0.000179  -0.000598  -0.000140
    13  H    0.000005   0.000015  -0.000019   0.000105  -0.000027   0.000061
    14  H    0.000493  -0.000179  -0.000074  -0.001358   0.000237   0.000143
    15  H    0.000045   0.000071   0.000389  -0.000068  -0.001086   0.000532
    16  H   -0.000102   0.000235   0.000466  -0.000064   0.000840   0.000482
    17  H   -0.000413  -0.000147  -0.000667   0.000171   0.001663  -0.001911
    18  H   -0.000055   0.000040  -0.000003  -0.000016  -0.000255   0.000418
    19  H    0.000180   0.000055  -0.000204  -0.000102  -0.001617   0.000439
    20  H    0.000563   0.000182   0.001512  -0.000891  -0.002548   0.001365
    21  H   -0.002402   0.001227  -0.000260  -0.000001   0.000807   0.000024
    22  H   -0.000804   0.000063   0.000004  -0.000004   0.000066   0.000047
    23  H   -0.000887   0.000361  -0.000295   0.000012   0.000246   0.000020
    24  H    0.001737  -0.000693  -0.000042   0.000023  -0.000496  -0.000348
    25  H   -0.000922   0.000168   0.000001  -0.000005   0.000250   0.000045
    26  H    0.000972   0.000294   0.000070  -0.000004   0.000065   0.000032
    27  H    0.000037  -0.000271   0.000278  -0.000112   0.000131   0.000003
               7          8          9         10         11         12
     1  C    0.000467   0.016097  -0.022040  -0.024743  -0.019283  -0.001067
     2  C   -0.002199  -0.006965   0.008366  -0.000538   0.004897   0.000185
     3  C   -0.004628   0.001038   0.000537  -0.013563   0.006073   0.000151
     4  C    0.002861   0.000314  -0.000350   0.002818  -0.001134   0.000179
     5  C    0.016567  -0.002006   0.001123  -0.010611  -0.014951  -0.000598
     6  C   -0.009024  -0.000949   0.002015  -0.019714   0.023801  -0.000140
     7  C    0.028273   0.001944  -0.001232  -0.026059   0.005035   0.000115
     8  C    0.001944   0.028948  -0.011228  -0.015046   0.000986   0.000731
     9  C   -0.001232  -0.011228   0.041707  -0.021566   0.026416  -0.000733
    10  N   -0.026059  -0.015046  -0.021566   1.006351  -0.442894   0.001802
    11  O    0.005035   0.000986   0.026416  -0.442894   0.890123  -0.000481
    12  H    0.000115   0.000731  -0.000733   0.001802  -0.000481   0.001012
    13  H   -0.000082  -0.000003   0.000004  -0.000015   0.000009  -0.000002
    14  H   -0.000485  -0.000079   0.000027  -0.000177   0.000030  -0.000029
    15  H   -0.000232  -0.000023   0.000070  -0.001511   0.002195  -0.000001
    16  H   -0.000473  -0.000010   0.000023  -0.000416  -0.000147  -0.000002
    17  H    0.000093   0.000053  -0.000276   0.004683  -0.003831   0.000007
    18  H   -0.000776  -0.000011   0.000026   0.001107  -0.000517  -0.000000
    19  H   -0.002573  -0.000145   0.000051   0.004616  -0.001113  -0.000001
    20  H   -0.003616  -0.000089   0.000031   0.000944  -0.000148  -0.000002
    21  H   -0.000103  -0.004471   0.001834   0.000340   0.000095  -0.000122
    22  H   -0.000057  -0.001222   0.000762   0.001928  -0.001081  -0.000002
    23  H   -0.000103  -0.001106   0.000266   0.002221  -0.000587  -0.000011
    24  H    0.000060   0.000219  -0.001848   0.005082  -0.003861   0.000037
    25  H   -0.000029  -0.000276   0.000353  -0.001360   0.002182  -0.000012
    26  H   -0.000016  -0.000582   0.000515  -0.000692   0.000110  -0.000082
    27  H   -0.000021  -0.000006   0.000009  -0.000074   0.000012  -0.000009
              13         14         15         16         17         18
     1  C    0.000005   0.000493   0.000045  -0.000102  -0.000413  -0.000055
     2  C    0.000015  -0.000179   0.000071   0.000235  -0.000147   0.000040
     3  C   -0.000019  -0.000074   0.000389   0.000466  -0.000667  -0.000003
     4  C    0.000105  -0.001358  -0.000068  -0.000064   0.000171  -0.000016
     5  C   -0.000027   0.000237  -0.001086   0.000840   0.001663  -0.000255
     6  C    0.000061   0.000143   0.000532   0.000482  -0.001911   0.000418
     7  C   -0.000082  -0.000485  -0.000232  -0.000473   0.000093  -0.000776
     8  C   -0.000003  -0.000079  -0.000023  -0.000010   0.000053  -0.000011
     9  C    0.000004   0.000027   0.000070   0.000023  -0.000276   0.000026
    10  N   -0.000015  -0.000177  -0.001511  -0.000416   0.004683   0.001107
    11  O    0.000009   0.000030   0.002195  -0.000147  -0.003831  -0.000517
    12  H   -0.000002  -0.000029  -0.000001  -0.000002   0.000007  -0.000000
    13  H   -0.000100   0.000016   0.000001   0.000001  -0.000003   0.000000
    14  H    0.000016   0.001841   0.000001   0.000004  -0.000002   0.000001
    15  H    0.000001   0.000001  -0.000918   0.000078  -0.000431   0.000029
    16  H    0.000001   0.000004   0.000078  -0.002146  -0.000148   0.000007
    17  H   -0.000003  -0.000002  -0.000431  -0.000148   0.000123  -0.000005
    18  H    0.000000   0.000001   0.000029   0.000007  -0.000005  -0.000706
    19  H    0.000004   0.000035   0.000019   0.000011  -0.000004   0.000193
    20  H    0.000039   0.000151   0.000082   0.000083  -0.000033   0.000410
    21  H    0.000000   0.000000   0.000000   0.000000  -0.000000   0.000000
    22  H    0.000000   0.000000   0.000000   0.000000  -0.000000   0.000000
    23  H    0.000000   0.000001   0.000000   0.000000  -0.000000   0.000000
    24  H   -0.000000  -0.000000  -0.000012  -0.000003   0.000069  -0.000000
    25  H    0.000000   0.000000   0.000002   0.000000  -0.000009   0.000000
    26  H    0.000000   0.000000   0.000000  -0.000000  -0.000005   0.000000
    27  H    0.000018   0.000073   0.000000   0.000003  -0.000000  -0.000000
              19         20         21         22         23         24
     1  C    0.000180   0.000563  -0.002402  -0.000804  -0.000887   0.001737
     2  C    0.000055   0.000182   0.001227   0.000063   0.000361  -0.000693
     3  C   -0.000204   0.001512  -0.000260   0.000004  -0.000295  -0.000042
     4  C   -0.000102  -0.000891  -0.000001  -0.000004   0.000012   0.000023
     5  C   -0.001617  -0.002548   0.000807   0.000066   0.000246  -0.000496
     6  C    0.000439   0.001365   0.000024   0.000047   0.000020  -0.000348
     7  C   -0.002573  -0.003616  -0.000103  -0.000057  -0.000103   0.000060
     8  C   -0.000145  -0.000089  -0.004471  -0.001222  -0.001106   0.000219
     9  C    0.000051   0.000031   0.001834   0.000762   0.000266  -0.001848
    10  N    0.004616   0.000944   0.000340   0.001928   0.002221   0.005082
    11  O   -0.001113  -0.000148   0.000095  -0.001081  -0.000587  -0.003861
    12  H   -0.000001  -0.000002  -0.000122  -0.000002  -0.000011   0.000037
    13  H    0.000004   0.000039   0.000000   0.000000   0.000000  -0.000000
    14  H    0.000035   0.000151   0.000000   0.000000   0.000001  -0.000000
    15  H    0.000019   0.000082   0.000000   0.000000   0.000000  -0.000012
    16  H    0.000011   0.000083   0.000000   0.000000   0.000000  -0.000003
    17  H   -0.000004  -0.000033  -0.000000  -0.000000  -0.000000   0.000069
    18  H    0.000193   0.000410   0.000000   0.000000   0.000000  -0.000000
    19  H   -0.000181   0.000558   0.000001   0.000001   0.000003  -0.000000
    20  H    0.000558   0.001542   0.000000   0.000000   0.000000  -0.000000
    21  H    0.000001   0.000000   0.001955   0.000752   0.000328  -0.000056
    22  H    0.000001   0.000000   0.000752  -0.000884   0.000094  -0.000006
    23  H    0.000003   0.000000   0.000328   0.000094  -0.000717  -0.000001
    24  H   -0.000000  -0.000000  -0.000056  -0.000006  -0.000001  -0.000342
    25  H    0.000000   0.000000   0.000100   0.000090   0.000010  -0.000413
    26  H    0.000000   0.000000   0.000135   0.000025   0.000014  -0.000200
    27  H    0.000000   0.000006   0.000000   0.000000   0.000000  -0.000000
              25         26         27
     1  C   -0.000922   0.000972   0.000037
     2  C    0.000168   0.000294  -0.000271
     3  C    0.000001   0.000070   0.000278
     4  C   -0.000005  -0.000004  -0.000112
     5  C    0.000250   0.000065   0.000131
     6  C    0.000045   0.000032   0.000003
     7  C   -0.000029  -0.000016  -0.000021
     8  C   -0.000276  -0.000582  -0.000006
     9  C    0.000353   0.000515   0.000009
    10  N   -0.001360  -0.000692  -0.000074
    11  O    0.002182   0.000110   0.000012
    12  H   -0.000012  -0.000082  -0.000009
    13  H    0.000000   0.000000   0.000018
    14  H    0.000000   0.000000   0.000073
    15  H    0.000002   0.000000   0.000000
    16  H    0.000000  -0.000000   0.000003
    17  H   -0.000009  -0.000005  -0.000000
    18  H    0.000000   0.000000  -0.000000
    19  H    0.000000   0.000000   0.000000
    20  H    0.000000   0.000000   0.000006
    21  H    0.000100   0.000135   0.000000
    22  H    0.000090   0.000025   0.000000
    23  H    0.000010   0.000014   0.000000
    24  H   -0.000413  -0.000200  -0.000000
    25  H   -0.001341   0.000167   0.000000
    26  H    0.000167  -0.002529   0.000000
    27  H    0.000000   0.000000  -0.000267
 Mulliken charges and spin densities:
               1          2
     1  C    0.306952   0.002988
     2  C   -0.284590   0.001922
     3  C   -0.037104   0.008538
     4  C   -0.395566   0.001479
     5  C    0.347129   0.010429
     6  C   -0.383077   0.020479
     7  C   -0.420555   0.003708
     8  C   -0.406452   0.006113
     9  C   -0.403322   0.024860
    10  N   -0.030453   0.452912
    11  O   -0.524704   0.471938
    12  H    0.143990   0.000924
    13  H    0.141034   0.000029
    14  H    0.165410   0.000667
    15  H    0.152951  -0.000767
    16  H    0.131903  -0.001279
    17  H    0.123893  -0.001024
    18  H    0.143072  -0.000112
    19  H    0.138871   0.000226
    20  H    0.127440   0.000143
    21  H    0.125793   0.000183
    22  H    0.149839  -0.000229
    23  H    0.137875  -0.000133
    24  H    0.130056  -0.001095
    25  H    0.155095  -0.000999
    26  H    0.138353  -0.001711
    27  H    0.126167  -0.000188
 Sum of Mulliken charges =  -0.00000   1.00000
 Mulliken charges and spin densities with hydrogens summed into heavy atoms:
               1          2
     1  C    0.306952   0.002988
     2  C   -0.140599   0.002846
     3  C   -0.037104   0.008538
     4  C    0.037046   0.001988
     5  C    0.347129   0.010429
     6  C    0.025669   0.017409
     7  C   -0.011171   0.003964
     8  C    0.007055   0.005934
     9  C    0.020182   0.021054
    10  N   -0.030453   0.452912
    11  O   -0.524704   0.471938
 Electronic spatial extent (au):  <R**2>=           1593.7242
 Charge=             -0.0000 electrons
 Dipole moment (field-independent basis, Debye):
    X=              1.5645    Y=              1.9787    Z=              0.7139  Tot=              2.6216
 Quadrupole moment (field-independent basis, Debye-Ang):
   XX=            -62.8572   YY=            -70.4452   ZZ=            -67.4379
   XY=             -2.4552   XZ=             -0.3666   YZ=              0.7682
 Traceless Quadrupole moment (field-independent basis, Debye-Ang):
   XX=              4.0562   YY=             -3.5318   ZZ=             -0.5245
   XY=             -2.4552   XZ=             -0.3666   YZ=              0.7682
 Octapole moment (field-independent basis, Debye-Ang**2):
  XXX=             -0.8610  YYY=              2.4662  ZZZ=             -0.3475  XYY=              6.6438
  XXY=              2.3080  XXZ=              1.1329  XZZ=             -0.5442  YZZ=             -3.5110
  YYZ=              3.7626  XYZ=             -1.7905
 Hexadecapole moment (field-independent basis, Debye-Ang**3):
 XXXX=          -1113.6515 YYYY=           -627.7268 ZZZZ=           -355.7993 XXXY=              4.6159
 XXXZ=             -0.1424 YYYX=             -5.8028 YYYZ=              9.4167 ZZZX=             -1.0003
 ZZZY=              0.1510 XXYY=           -288.6182 XXZZ=           -249.7636 YYZZ=           -161.4343
 XXYZ=              0.0574 YYXZ=             -2.3703 ZZXY=              2.5147
 N-N= 7.120910468364D+02 E-N=-2.547390378110D+03  KE= 4.839556605970D+02
                          Isotropic Fermi Contact Couplings
        Atom                 a.u.       MegaHertz       Gauss      10(-4) cm-1
     1  C(13)              0.02439      27.42107       9.78452       9.14668
     2  C(13)              0.00033       0.36977       0.13194       0.12334
     3  C(13)              0.00592       6.65057       2.37309       2.21839
     4  C(13)              0.00107       1.20629       0.43043       0.40237
     5  C(13)              0.02955      33.22122      11.85416      11.08141
     6  C(13)              0.00181       2.03287       0.72538       0.67809
     7  C(13)              0.01042      11.71774       4.18118       3.90862
     8  C(13)              0.01086      12.20796       4.35610       4.07214
     9  C(13)              0.00251       2.82212       1.00700       0.94136
    10  N(14)              0.21689      70.07712      25.00526      23.37521
    11  O(17)              0.07778     -47.15177     -16.82493     -15.72814
    12  H(1)               0.00069       3.07088       1.09577       1.02433
    13  H(1)               0.00008       0.35724       0.12747       0.11916
    14  H(1)               0.00028       1.26985       0.45311       0.42358
    15  H(1)              -0.00033      -1.48924      -0.53140      -0.49676
    16  H(1)              -0.00026      -1.17483      -0.41921      -0.39188
    17  H(1)              -0.00022      -0.99944      -0.35662      -0.33338
    18  H(1)              -0.00015      -0.67821      -0.24200      -0.22623
    19  H(1)              -0.00009      -0.42242      -0.15073      -0.14090
    20  H(1)              -0.00021      -0.92281      -0.32928      -0.30782
    21  H(1)              -0.00025      -1.11037      -0.39621      -0.37038
    22  H(1)              -0.00025      -1.09793      -0.39177      -0.36623
    23  H(1)              -0.00012      -0.55501      -0.19804      -0.18513
    24  H(1)              -0.00024      -1.07461      -0.38345      -0.35845
    25  H(1)              -0.00038      -1.69057      -0.60324      -0.56391
    26  H(1)              -0.00045      -2.02835      -0.72377      -0.67659
    27  H(1)              -0.00005      -0.23483      -0.08379      -0.07833
 --------------------------------------------------------
       Center         ----  Spin Dipole Couplings  ----
                      3XX-RR        3YY-RR        3ZZ-RR
 --------------------------------------------------------
     1   Atom       -0.013739      0.042530     -0.028791
     2   Atom       -0.007094      0.018479     -0.011385
     3   Atom       -0.003635      0.001774      0.001861
     4   Atom        0.001152      0.002222     -0.003374
     5   Atom        0.052473     -0.024951     -0.027523
     6   Atom       -0.001737     -0.008644      0.010381
     7   Atom        0.016396     -0.007125     -0.009272
     8   Atom        0.013482     -0.005580     -0.007902
     9   Atom       -0.003259     -0.009532      0.012790
    10   Atom       -0.500085     -0.468199      0.968283
    11   Atom       -0.979252     -0.810138      1.789391
    12   Atom       -0.003142      0.005330     -0.002188
    13   Atom        0.002140     -0.000401     -0.001739
    14   Atom        0.000514      0.000724     -0.001239
    15   Atom        0.005694     -0.003374     -0.002320
    16   Atom        0.004628     -0.003648     -0.000980
    17   Atom        0.000449     -0.006186      0.005738
    18   Atom        0.008020     -0.002749     -0.005271
    19   Atom        0.006998     -0.007796      0.000798
    20   Atom        0.007021     -0.003482     -0.003539
    21   Atom        0.002370      0.001242     -0.003612
    22   Atom        0.009335     -0.003805     -0.005530
    23   Atom       -0.001271      0.000969      0.000302
    24   Atom       -0.003544     -0.002735      0.006279
    25   Atom        0.005963     -0.003380     -0.002584
    26   Atom       -0.000746      0.001553     -0.000807
    27   Atom       -0.000175      0.001327     -0.001152
 --------------------------------------------------------
                        XY            XZ            YZ
 --------------------------------------------------------
     1   Atom       -0.039734     -0.009069      0.024709
     2   Atom        0.002931     -0.000944      0.003428
     3   Atom        0.011012     -0.000767     -0.003466
     4   Atom        0.005229     -0.000027     -0.000229
     5   Atom        0.024489      0.018945      0.007910
     6   Atom       -0.002985      0.015158     -0.012506
     7   Atom       -0.007701     -0.009038      0.002918
     8   Atom       -0.009791      0.011111     -0.003574
     9   Atom       -0.002148     -0.022401     -0.000868
    10   Atom        0.013983     -0.008801      0.061892
    11   Atom        0.055170      0.246648      0.781090
    12   Atom        0.000486     -0.000553      0.002693
    13   Atom        0.002284      0.000949      0.000402
    14   Atom        0.002622     -0.000272     -0.000340
    15   Atom       -0.004164      0.008348     -0.003079
    16   Atom        0.001091      0.004555     -0.001286
    17   Atom        0.000739      0.007421      0.001176
    18   Atom       -0.005311     -0.003857      0.001250
    19   Atom        0.001164     -0.008669     -0.000662
    20   Atom        0.000770     -0.001432     -0.000030
    21   Atom       -0.005644      0.000798     -0.000566
    22   Atom       -0.005272      0.005347     -0.002078
    23   Atom       -0.006795      0.004767     -0.006070
    24   Atom       -0.003756     -0.004759      0.006349
    25   Atom       -0.004327     -0.008195      0.003807
    26   Atom       -0.004433     -0.004611      0.002565
    27   Atom        0.001868      0.000465      0.000917
 --------------------------------------------------------


 ---------------------------------------------------------------------------------
              Anisotropic Spin Dipole Couplings in Principal Axis System
 ---------------------------------------------------------------------------------

       Atom             a.u.   MegaHertz   Gauss  10(-4) cm-1        Axes

              Baa    -0.0383    -5.134    -1.832    -1.712 -0.4674 -0.4607  0.7545
     1 C(13)  Bbb    -0.0317    -4.258    -1.519    -1.420  0.7685  0.2101  0.6044
              Bcc     0.0700     9.392     3.351     3.133 -0.4369  0.8624  0.2558
 
              Baa    -0.0121    -1.625    -0.580    -0.542  0.2572 -0.1319  0.9573
     2 C(13)  Bbb    -0.0071    -0.947    -0.338    -0.316  0.9605 -0.0742 -0.2683
              Bcc     0.0192     2.572     0.918     0.858  0.1065  0.9885  0.1076
 
              Baa    -0.0124    -1.669    -0.596    -0.557  0.7725 -0.6254 -0.1101
     3 C(13)  Bbb     0.0010     0.128     0.046     0.043  0.2827  0.1834  0.9415
              Bcc     0.0115     1.541     0.550     0.514  0.5686  0.7585 -0.3185
 
              Baa    -0.0036    -0.488    -0.174    -0.163  0.6551 -0.6024 -0.4561
     4 C(13)  Bbb    -0.0033    -0.444    -0.158    -0.148  0.3495 -0.2936  0.8898
              Bcc     0.0069     0.932     0.333     0.311  0.6699  0.7422 -0.0182
 
              Baa    -0.0343    -4.606    -1.644    -1.536 -0.0521  0.7199 -0.6921
     5 C(13)  Bbb    -0.0298    -3.997    -1.426    -1.333 -0.3480  0.6365  0.6883
              Bcc     0.0641     8.603     3.070     2.870  0.9360  0.2767  0.2174
 
              Baa    -0.0168    -2.255    -0.805    -0.752 -0.4267  0.7075  0.5634
     6 C(13)  Bbb    -0.0082    -1.102    -0.393    -0.368  0.7589  0.6189 -0.2024
              Bcc     0.0250     3.357     1.198     1.120  0.4919 -0.3412  0.8010
 
              Baa    -0.0122    -1.638    -0.584    -0.546  0.2599 -0.1536  0.9533
     7 C(13)  Bbb    -0.0094    -1.262    -0.450    -0.421  0.3074  0.9491  0.0691
              Bcc     0.0216     2.900     1.035     0.967  0.9154 -0.2751 -0.2939
 
              Baa    -0.0127    -1.706    -0.609    -0.569 -0.4326 -0.1482  0.8893
     8 C(13)  Bbb    -0.0094    -1.263    -0.451    -0.421  0.2593  0.9243  0.2802
              Bcc     0.0221     2.969     1.059     0.990  0.8635 -0.3518  0.3614
 
              Baa    -0.0195    -2.622    -0.936    -0.875  0.7990  0.2201  0.5596
     9 C(13)  Bbb    -0.0090    -1.212    -0.432    -0.404 -0.1721  0.9754 -0.1379
              Bcc     0.0286     3.834     1.368     1.279 -0.5761  0.0139  0.8172
 
              Baa    -0.5060   -19.515    -6.963    -6.509  0.9257 -0.3775  0.0214
    10 N(14)  Bbb    -0.4650   -17.934    -6.399    -5.982  0.3781  0.9250 -0.0376
              Bcc     0.9710    37.449    13.363    12.492 -0.0056  0.0429  0.9991
 
              Baa    -1.0319    74.669    26.644    24.907  0.3733  0.8852 -0.2777
    11 O(17)  Bbb    -0.9953    72.020    25.698    24.023  0.9239 -0.3817  0.0252
              Bcc     2.0272  -146.689   -52.342   -48.930  0.0837  0.2660  0.9603
 
              Baa    -0.0038    -2.016    -0.719    -0.672  0.7318 -0.2289  0.6420
    12 H(1)   Bbb    -0.0024    -1.294    -0.462    -0.432 -0.6808 -0.2018  0.7041
              Bcc     0.0062     3.310     1.181     1.104  0.0316  0.9523  0.3035
 
              Baa    -0.0020    -1.067    -0.381    -0.356 -0.3733  0.3140  0.8729
    13 H(1)   Bbb    -0.0017    -0.894    -0.319    -0.298 -0.3731  0.8107 -0.4512
              Bcc     0.0037     1.961     0.700     0.654  0.8494  0.4941  0.1855
 
              Baa    -0.0020    -1.071    -0.382    -0.357  0.7170 -0.6950 -0.0539
    14 H(1)   Bbb    -0.0013    -0.682    -0.243    -0.227  0.1050  0.0313  0.9940
              Bcc     0.0033     1.753     0.625     0.585  0.6892  0.7183 -0.0954
 
              Baa    -0.0076    -4.069    -1.452    -1.357 -0.4950  0.1366  0.8581
    15 H(1)   Bbb    -0.0050    -2.662    -0.950    -0.888  0.3337  0.9417  0.0426
              Bcc     0.0126     6.731     2.402     2.245  0.8022 -0.3075  0.5118
 
              Baa    -0.0052    -2.800    -0.999    -0.934 -0.3544  0.7209  0.5956
    16 H(1)   Bbb    -0.0019    -1.033    -0.368    -0.344  0.3302  0.6923 -0.6416
              Bcc     0.0072     3.832     1.367     1.278  0.8749  0.0307  0.4833
 
              Baa    -0.0063    -3.362    -1.200    -1.121 -0.0066  0.9956 -0.0932
    17 H(1)   Bbb    -0.0048    -2.551    -0.910    -0.851  0.8187 -0.0481 -0.5722
              Bcc     0.0111     5.913     2.110     1.972  0.5742  0.0800  0.8148
 
              Baa    -0.0063    -3.376    -1.205    -1.126  0.2942  0.1048  0.9500
    18 H(1)   Bbb    -0.0049    -2.595    -0.926    -0.866  0.3211  0.9253 -0.2016
              Bcc     0.0112     5.971     2.131     1.992  0.9002 -0.3643 -0.2386
 
              Baa    -0.0079    -4.208    -1.502    -1.404 -0.0805  0.9967 -0.0044
    19 H(1)   Bbb    -0.0053    -2.829    -1.010    -0.944  0.5722  0.0498  0.8186
              Bcc     0.0132     7.037     2.511     2.347  0.8161  0.0634 -0.5744
 
              Baa    -0.0038    -2.003    -0.715    -0.668  0.1470 -0.3112  0.9389
    20 H(1)   Bbb    -0.0035    -1.874    -0.669    -0.625 -0.0260  0.9477  0.3182
              Bcc     0.0073     3.877     1.383     1.293  0.9888  0.0712 -0.1313
 
              Baa    -0.0039    -2.094    -0.747    -0.698  0.6273  0.6361 -0.4492
    21 H(1)   Bbb    -0.0036    -1.941    -0.693    -0.647  0.2449  0.3864  0.8892
              Bcc     0.0076     4.035     1.440     1.346  0.7392 -0.6679  0.0866
 
              Baa    -0.0073    -3.909    -1.395    -1.304 -0.2422  0.1979  0.9498
    22 H(1)   Bbb    -0.0056    -3.009    -1.074    -1.004  0.3622  0.9266 -0.1008
              Bcc     0.0130     6.918     2.468     2.308  0.9001 -0.3196  0.2961
 
              Baa    -0.0071    -3.770    -1.345    -1.257  0.7235  0.6838  0.0952
    23 H(1)   Bbb    -0.0048    -2.567    -0.916    -0.856 -0.4402  0.3506  0.8266
              Bcc     0.0119     6.337     2.261     2.114 -0.5318  0.6400 -0.5546
 
              Baa    -0.0070    -3.742    -1.335    -1.248  0.6374  0.7587 -0.1341
    24 H(1)   Bbb    -0.0049    -2.590    -0.924    -0.864  0.6803 -0.4725  0.5603
              Bcc     0.0119     6.332     2.259     2.112 -0.3617  0.4484  0.8174
 
              Baa    -0.0079    -4.223    -1.507    -1.409  0.3993 -0.3354  0.8533
    25 H(1)   Bbb    -0.0050    -2.667    -0.952    -0.890  0.4501  0.8825  0.1362
              Bcc     0.0129     6.890     2.459     2.298  0.7987 -0.3297 -0.5033
 
              Baa    -0.0057    -3.066    -1.094    -1.023  0.7696  0.2629  0.5819
    26 H(1)   Bbb    -0.0021    -1.110    -0.396    -0.370  0.2321  0.7339 -0.6384
              Bcc     0.0078     4.176     1.490     1.393 -0.5949  0.6264  0.5038
 
              Baa    -0.0015    -0.827    -0.295    -0.276  0.5238 -0.5481  0.6521
    27 H(1)   Bbb    -0.0013    -0.694    -0.247    -0.231 -0.6617  0.2202  0.7167
              Bcc     0.0028     1.520     0.543     0.507  0.5364  0.8069  0.2473
 

 ---------------------------------------------------------------------------------

 No NMR shielding tensors so no spin-rotation constants.
 Leave Link  601 at Sun Jun 23 21:42:04 2019, MaxMem=  8053063680 cpu:               0.0 elap:               0.3
 (Enter /data2/g16/g16/l9999.exe)
 1\1\GINC-CU07\SP\UPBE1PBE\Gen\C9H16N1O1(2)\ROOT\23-Jun-2019\0\\#p gen 
 6d pbe1pbe\\start preoptimized\\0,2\C,0,82.567,11.28,5.876\C,0,83.585,
 11.12,4.889\C,0,83.533,9.835,4.362\C,0,84.452,9.352,3.255\C,0,82.51,9.
 094,5.03\C,0,83.036,7.993,5.943\C,0,81.626,8.34,4.053\C,0,81.7,12.519,
 5.77\C,0,83.095,11.441,7.293\N,0,81.702,10.105,5.726\O,0,81.222,9.777,
 6.646\H,0,84.404,11.548,4.993\H,0,84.531,8.418,3.302\H,0,84.089,9.591,
 2.423\H,0,82.315,7.543,6.343\H,0,83.543,7.385,5.439\H,0,83.577,8.372,6
 .611\H,0,81.015,7.808,4.527\H,0,81.158,8.953,3.518\H,0,82.159,7.792,3.
 507\H,0,82.209,13.278,5.985\H,0,80.975,12.448,6.363\H,0,81.377,12.599,
 4.892\H,0,83.565,10.667,7.54\H,0,82.378,11.573,7.885\H,0,83.672,12.181
 ,7.33\H,0,85.42032354,9.79519193,3.35906936\\Version=AM64L-G16RevB.01\
 State=2-A\HF=-481.5574734\S2=0.753045\S2-1=0.\S2A=0.750006\RMSD=4.219e
 -09\Dipole=0.8667353,-0.1121335,-0.5477091\Quadrupole=-1.3345609,2.261
 2896,-0.9267288,-0.5020234,1.2851289,2.4541421\PG=C01 [X(C9H16N1O1)]\\
 @


 IT IS A QUALITY OF REVOLUTIONS NOT TO GO BY OLD LINES OR OLD LAWS,
 BUT TO BREAK UP BOTH, AND MAKE NEW ONES.
                                              -- A. LINCOLN (1848)
 Elapsed time:       0 days  0 hours  1 minutes  3.5 seconds.
 File lengths (MBytes):  RWF=     95 Int=      0 D2E=      0 Chk=      8 Scr=      1
 Normal termination of Gaussian 16 at Sun Jun 23 21:42:04 2019.
